  -2.600000      0.0000000E+00
  -2.590000      0.0000000E+00
  -2.580000      0.0000000E+00
  -2.570000      0.0000000E+00
  -2.560000      0.0000000E+00
  -2.550000      0.0000000E+00
  -2.540000      0.0000000E+00
  -2.530000      0.0000000E+00
  -2.520000      0.0000000E+00
  -2.510000      0.0000000E+00
  -2.500000      0.0000000E+00
  -2.490000      0.0000000E+00
  -2.480000      0.0000000E+00
  -2.470000      0.0000000E+00
  -2.460000      0.0000000E+00
  -2.450000      0.0000000E+00
  -2.440000      0.0000000E+00
  -2.430000      0.0000000E+00
  -2.420000      0.0000000E+00
  -2.410000      0.0000000E+00
  -2.400000      0.0000000E+00
  -2.390000      0.0000000E+00
  -2.380000      0.0000000E+00
  -2.370000      0.0000000E+00
  -2.360000      0.0000000E+00
  -2.350000      0.0000000E+00
  -2.340000      0.0000000E+00
  -2.330000      0.0000000E+00
  -2.320000      0.0000000E+00
  -2.310000      0.0000000E+00
  -2.300000      0.0000000E+00
  -2.290000      0.0000000E+00
  -2.280000      0.0000000E+00
  -2.270000      0.0000000E+00
  -2.260000      0.0000000E+00
  -2.250000      0.0000000E+00
  -2.240000      0.0000000E+00
  -2.230000      0.0000000E+00
  -2.220000      0.0000000E+00
  -2.210000      0.0000000E+00
  -2.200000      0.0000000E+00
  -2.190000      0.0000000E+00
  -2.180000      0.0000000E+00
  -2.170000      0.0000000E+00
  -2.160000      0.0000000E+00
  -2.150000      0.0000000E+00
  -2.140000      0.0000000E+00
  -2.130000      0.0000000E+00
  -2.120000      0.0000000E+00
  -2.110000      0.0000000E+00
  -2.100000      0.0000000E+00
  -2.090000      0.0000000E+00
  -2.080000      0.0000000E+00
  -2.070000      0.0000000E+00
  -2.060000      0.0000000E+00
  -2.050000      0.0000000E+00
  -2.040000      0.0000000E+00
  -2.030000      0.0000000E+00
  -2.020000      0.0000000E+00
  -2.010000      0.0000000E+00
  -2.000000      0.0000000E+00
  -1.990000      0.0000000E+00
  -1.980000      0.0000000E+00
  -1.970000      0.0000000E+00
  -1.960000      0.0000000E+00
  -1.950000      0.0000000E+00
  -1.940000      0.0000000E+00
  -1.930000      0.0000000E+00
  -1.920000      0.0000000E+00
  -1.910000      0.0000000E+00
  -1.900000      0.0000000E+00
  -1.890000      0.0000000E+00
  -1.880000      0.0000000E+00
  -1.870000      0.0000000E+00
  -1.860000      0.0000000E+00
  -1.850000      0.0000000E+00
  -1.840000      0.0000000E+00
  -1.830000      0.0000000E+00
  -1.820000      0.0000000E+00
  -1.810000      0.0000000E+00
  -1.800000      0.0000000E+00
  -1.790000      0.0000000E+00
  -1.780000      0.0000000E+00
  -1.770000      0.0000000E+00
  -1.760000      0.0000000E+00
  -1.750000      0.0000000E+00
  -1.740000      0.0000000E+00
  -1.730000      0.0000000E+00
  -1.720000      0.0000000E+00
  -1.710000      0.0000000E+00
  -1.700000      0.0000000E+00
  -1.690000      0.0000000E+00
  -1.680000      0.0000000E+00
  -1.670000      0.0000000E+00
  -1.660000      0.0000000E+00
  -1.650000      0.0000000E+00
  -1.640000      0.0000000E+00
  -1.630000      0.0000000E+00
  -1.620000      0.0000000E+00
  -1.610000      0.0000000E+00
  -1.600000      0.0000000E+00
  -1.590000      0.0000000E+00
  -1.580000      0.0000000E+00
  -1.570000      0.0000000E+00
  -1.560000      0.0000000E+00
  -1.550000      0.0000000E+00
  -1.540000      0.0000000E+00
  -1.530000      0.0000000E+00
  -1.520000      0.0000000E+00
  -1.510000      0.0000000E+00
  -1.500000      0.0000000E+00
  -1.490000      0.0000000E+00
  -1.480000      0.0000000E+00
  -1.470000      0.0000000E+00
  -1.460000      0.0000000E+00
  -1.450000      0.0000000E+00
  -1.440000      0.0000000E+00
  -1.430000      0.0000000E+00
  -1.420000      0.0000000E+00
  -1.410000      0.0000000E+00
  -1.400000      0.0000000E+00
  -1.390000      0.0000000E+00
  -1.380000      0.0000000E+00
  -1.370000      0.0000000E+00
  -1.360000      0.0000000E+00
  -1.350000      0.0000000E+00
  -1.340000      0.0000000E+00
  -1.330000      0.0000000E+00
  -1.320000      0.0000000E+00
  -1.310000      0.0000000E+00
  -1.300000      0.0000000E+00
  -1.290000      0.0000000E+00
  -1.280000      0.0000000E+00
  -1.270000      0.0000000E+00
  -1.260000      0.0000000E+00
  -1.250000      0.0000000E+00
  -1.240000      0.0000000E+00
  -1.230000      0.0000000E+00
  -1.220000      0.0000000E+00
  -1.210000      0.0000000E+00
  -1.200000      0.0000000E+00
  -1.190000      0.0000000E+00
  -1.180000      0.0000000E+00
  -1.170000      0.0000000E+00
  -1.160000      0.0000000E+00
  -1.150000      0.0000000E+00
  -1.140000      0.0000000E+00
  -1.130000      0.0000000E+00
  -1.120000      0.0000000E+00
  -1.110000      0.0000000E+00
  -1.100000      0.0000000E+00
  -1.090000      0.0000000E+00
  -1.080000      0.0000000E+00
  -1.070000      0.0000000E+00
  -1.060000      0.0000000E+00
  -1.050000      0.0000000E+00
  -1.040000      0.0000000E+00
  -1.030000      0.0000000E+00
  -1.020000      0.0000000E+00
  -1.010000      0.0000000E+00
  -1.000000      0.0000000E+00
 -0.9900000      0.0000000E+00
 -0.9800000      0.0000000E+00
 -0.9700000      0.0000000E+00
 -0.9600000      0.0000000E+00
 -0.9500000      0.0000000E+00
 -0.9400000      0.0000000E+00
 -0.9300000      0.0000000E+00
 -0.9200000      0.0000000E+00
 -0.9100000      0.0000000E+00
 -0.9000000      0.0000000E+00
 -0.8900000      0.0000000E+00
 -0.8800000      0.0000000E+00
 -0.8700000      0.0000000E+00
 -0.8600000      0.0000000E+00
 -0.8500000      0.0000000E+00
 -0.8400000      0.0000000E+00
 -0.8300000      0.0000000E+00
 -0.8200000      0.0000000E+00
 -0.8100000      0.0000000E+00
 -0.8000000      0.0000000E+00
 -0.7900000      0.0000000E+00
 -0.7800000      0.0000000E+00
 -0.7700000      0.0000000E+00
 -0.7600000      0.0000000E+00
 -0.7500000      0.0000000E+00
 -0.7400000      0.0000000E+00
 -0.7300000      0.0000000E+00
 -0.7200000      0.0000000E+00
 -0.7100000      0.0000000E+00
 -0.7000000      0.0000000E+00
 -0.6900000      0.0000000E+00
 -0.6800000      0.0000000E+00
 -0.6700000      0.0000000E+00
 -0.6600000      0.0000000E+00
 -0.6500000      0.0000000E+00
 -0.6400000      0.0000000E+00
 -0.6300000      0.0000000E+00
 -0.6200000      0.0000000E+00
 -0.6100000      0.0000000E+00
 -0.6000000      0.0000000E+00
 -0.5900000      0.0000000E+00
 -0.5800000      0.0000000E+00
 -0.5700000      0.0000000E+00
 -0.5600000      0.0000000E+00
 -0.5500000      0.0000000E+00
 -0.5400000      0.0000000E+00
 -0.5300000      0.0000000E+00
 -0.5200000      0.0000000E+00
 -0.5100000      0.0000000E+00
 -0.5000000      0.0000000E+00
 -0.4900000      0.0000000E+00
 -0.4800000      0.0000000E+00
 -0.4700000      0.0000000E+00
 -0.4600000      0.0000000E+00
 -0.4500000      0.0000000E+00
 -0.4400000      0.0000000E+00
 -0.4300000      0.0000000E+00
 -0.4200000      0.0000000E+00
 -0.4100000      0.0000000E+00
 -0.4000000      0.0000000E+00
 -0.3900000      0.0000000E+00
 -0.3800000      0.0000000E+00
 -0.3700000      0.0000000E+00
 -0.3600000      0.0000000E+00
 -0.3500000      0.0000000E+00
 -0.3400000      0.0000000E+00
 -0.3300000      0.0000000E+00
 -0.3200000      0.0000000E+00
 -0.3100000      0.0000000E+00
 -0.3000000      0.0000000E+00
 -0.2900000      0.0000000E+00
 -0.2800000      0.0000000E+00
 -0.2700000      0.0000000E+00
 -0.2600000      0.0000000E+00
 -0.2500000      0.0000000E+00
 -0.2400000      0.0000000E+00
 -0.2300000      0.0000000E+00
 -0.2200000      0.0000000E+00
 -0.2100000      0.0000000E+00
 -0.2000000      0.0000000E+00
 -0.1900000      0.0000000E+00
 -0.1800000      0.0000000E+00
 -0.1700000      0.0000000E+00
 -0.1600000      0.0000000E+00
 -0.1500000      0.0000000E+00
 -0.1400000      0.0000000E+00
 -0.1300000      0.0000000E+00
 -0.1200000      0.0000000E+00
 -0.1100000      0.0000000E+00
 -0.1000000      0.0000000E+00
 -9.0000004E-02  0.0000000E+00
 -7.9999998E-02  0.0000000E+00
 -7.0000000E-02  0.0000000E+00
 -5.9999999E-02  0.0000000E+00
 -5.0000001E-02  0.0000000E+00
 -3.9999999E-02  0.0000000E+00
 -2.9999999E-02  0.0000000E+00
 -2.0000000E-02  0.0000000E+00
 -9.9999998E-03  0.0000000E+00
 -3.4694470E-17  0.0000000E+00
  9.9999998E-03  0.0000000E+00
  2.0000000E-02  0.0000000E+00
  2.9999999E-02  0.0000000E+00
  3.9999999E-02  0.0000000E+00
  5.0000001E-02  0.0000000E+00
  5.9999999E-02  0.0000000E+00
  7.0000000E-02  0.0000000E+00
  7.9999998E-02  0.0000000E+00
  9.0000004E-02  0.0000000E+00
  0.1000000      0.0000000E+00
  0.1100000      0.0000000E+00
  0.1200000      0.0000000E+00
  0.1300000      0.0000000E+00
  0.1400000      0.0000000E+00
  0.1500000      0.0000000E+00
  0.1600000      0.0000000E+00
  0.1700000      0.0000000E+00
  0.1800000      0.0000000E+00
  0.1900000      0.0000000E+00
  0.2000000      0.0000000E+00
  0.2100000      0.0000000E+00
  0.2200000      0.0000000E+00
  0.2300000      0.0000000E+00
  0.2400000      0.0000000E+00
  0.2500000      0.0000000E+00
  0.2600000      0.0000000E+00
  0.2700000      0.0000000E+00
  0.2800000      0.0000000E+00
  0.2900000      0.0000000E+00
  0.3000000      0.0000000E+00
  0.3100000      0.0000000E+00
  0.3200000      0.0000000E+00
  0.3300000      0.0000000E+00
  0.3400000      0.0000000E+00
  0.3500000      0.0000000E+00
  0.3600000      0.0000000E+00
  0.3700000      0.0000000E+00
  0.3800000      0.0000000E+00
  0.3900000      0.0000000E+00
  0.4000000      0.0000000E+00
  0.4100000      0.0000000E+00
  0.4200000      0.0000000E+00
  0.4300000      0.0000000E+00
  0.4400000      0.0000000E+00
  0.4500000      0.0000000E+00
  0.4600000     -1.6770135E-38
  0.4700000     -2.5960402E-38
  0.4800000     -4.0127981E-38
  0.4900000     -5.7669166E-38
  0.5000000     -7.8413422E-38
  0.5100000     -1.0646524E-37
  0.5200000     -1.4225840E-37
  0.5300000     -1.8209156E-37
  0.5400000     -2.2818179E-37
  0.5500000     -2.8104135E-37
  0.5600000     -3.3418383E-37
  0.5700000     -3.8653883E-37
  0.5800000     -4.2931440E-37
  0.5900000     -4.5883839E-37
  0.6000000     -4.8508168E-37
  0.6100000     -5.1341248E-37
  0.6200000     -5.3145480E-37
  0.6300000     -5.1322415E-37
  0.6400000     -4.4006225E-37
  0.6500000     -3.2140906E-37
  0.6600000     -1.6591072E-37
  0.6700000      2.6877684E-38
  0.6800000      2.3430973E-37
  0.6900000      4.6237468E-37
  0.7000000      7.3472213E-37
  0.7100000      1.0242772E-36
  0.7200000      1.3242651E-36
  0.7300000      1.6420484E-36
  0.7400000      1.9760070E-36
  0.7500000      2.3468611E-36
  0.7600000      2.7268665E-36
  0.7700000      3.1015720E-36
  0.7800000      3.5118425E-36
  0.7900000      3.9794329E-36
  0.8000000      4.4493580E-36
  0.8100000      4.9070332E-36
  0.8200000      5.5173442E-36
  0.8300000      6.2773615E-36
  0.8400000      7.0691148E-36
  0.8500000      7.8335535E-36
  0.8600000      8.5228549E-36
  0.8700000      9.1583903E-36
  0.8800000      9.7483759E-36
  0.8900000      1.0378338E-35
  0.9000000      1.0801135E-35
  0.9100000      1.0902232E-35
  0.9200000      1.0937178E-35
  0.9300000      1.0876387E-35
  0.9400000      1.0584588E-35
  0.9500000      1.0090680E-35
  0.9600000      9.4269474E-36
  0.9700000      8.3716872E-36
  0.9800000      6.7546758E-36
  0.9900000      4.4100281E-36
   1.000000      1.4496052E-36
   1.010000     -1.8415887E-36
   1.020000     -5.4447275E-36
   1.030000     -9.4359272E-36
   1.040000     -1.3857605E-35
   1.050000     -1.8628071E-35
   1.060000     -2.3661583E-35
   1.070000     -2.8823130E-35
   1.080000     -3.4346246E-35
   1.090000     -3.9986042E-35
   1.100000     -4.5675420E-35
   1.110000     -5.1667172E-35
   1.120000     -5.7666125E-35
   1.130000     -6.3729375E-35
   1.140000     -7.0161361E-35
   1.150000     -7.6763816E-35
   1.160000     -8.3425328E-35
   1.170000     -9.0135529E-35
   1.180000     -9.6756318E-35
   1.190000     -1.0351720E-34
   1.200000     -1.1020377E-34
   1.210000     -1.1657169E-34
   1.220000     -1.2233581E-34
   1.230000     -1.2729499E-34
   1.240000     -1.3193939E-34
   1.250000     -1.3622453E-34
   1.260000     -1.3970937E-34
   1.270000     -1.4255176E-34
   1.280000     -1.4438959E-34
   1.290000     -1.4519488E-34
   1.300000     -1.4501211E-34
   1.310000     -1.4342140E-34
   1.320000     -1.4019215E-34
   1.330000     -1.3520393E-34
   1.340000     -1.2829831E-34
   1.350000     -1.1837886E-34
   1.360000     -1.0523542E-34
   1.370000     -8.9272993E-35
   1.380000     -6.9861248E-35
   1.390000     -4.7847915E-35
   1.400000     -2.3314669E-35
   1.410000      5.0881683E-36
   1.420000      3.7086809E-35
   1.430000      7.4114196E-35
   1.440000      1.1780031E-34
   1.450000      1.6701442E-34
   1.460000      2.1939245E-34
   1.470000      2.7173012E-34
   1.480000      3.2374935E-34
   1.490000      3.7459540E-34
   1.500000      4.2224933E-34
   1.510000      4.6845686E-34
   1.520000      5.1982151E-34
   1.530000      5.7607268E-34
   1.540000      6.3147690E-34
   1.550000      6.8613936E-34
   1.560000      7.4353273E-34
   1.570000      8.0589000E-34
   1.580000      8.7119055E-34
   1.590000      9.3887202E-34
   1.600000      1.0123749E-33
   1.610000      1.0874199E-33
   1.620000      1.1553932E-33
   1.630000      1.2206692E-33
   1.640000      1.2841585E-33
   1.650000      1.3416876E-33
   1.660000      1.3930670E-33
   1.670000      1.4363732E-33
   1.680000      1.4652506E-33
   1.690000      1.4793711E-33
   1.700000      1.4802972E-33
   1.710000      1.4613961E-33
   1.720000      1.4229845E-33
   1.730000      1.3640498E-33
   1.740000      1.2808058E-33
   1.750000      1.1742503E-33
   1.760000      1.0415636E-33
   1.770000      8.7891106E-34
   1.780000      6.8595707E-34
   1.790000      4.6252759E-34
   1.800000      2.0764130E-34
   1.810000     -8.1036853E-35
   1.820000     -4.0453150E-34
   1.830000     -7.6212442E-34
   1.840000     -1.1504547E-33
   1.850000     -1.5700490E-33
   1.860000     -2.0285067E-33
   1.870000     -2.5199304E-33
   1.880000     -3.0379076E-33
   1.890000     -3.5849165E-33
   1.900000     -4.1593821E-33
   1.910000     -4.7596093E-33
   1.920000     -5.3811523E-33
   1.930000     -6.0194156E-33
   1.940000     -6.6711354E-33
   1.950000     -7.3317654E-33
   1.960000     -7.9958463E-33
   1.970000     -8.6572705E-33
   1.980000     -9.3094803E-33
   1.990000     -9.9448174E-33
   2.000000     -1.0554709E-32
   2.010000     -1.1130085E-32
   2.020000     -1.1660833E-32
   2.030000     -1.2135543E-32
   2.040000     -1.2542350E-32
   2.050000     -1.2867286E-32
   2.060000     -1.3095736E-32
   2.070000     -1.3212880E-32
   2.080000     -1.3203423E-32
   2.090000     -1.3051022E-32
   2.100000     -1.2738293E-32
   2.110000     -1.2247709E-32
   2.120000     -1.1561151E-32
   2.130000     -1.0660554E-32
   2.140000     -9.5280775E-33
   2.150000     -8.1457718E-33
   2.160000     -6.4962219E-33
   2.170000     -4.5634961E-33
   2.180000     -2.3320456E-33
   2.190000      2.1247669E-34
   2.200000      3.0827347E-33
   2.210000      6.2895244E-33
   2.220000      9.8405158E-33
   2.230000      1.3742703E-32
   2.240000      1.8000301E-32
   2.250000      2.2612518E-32
   2.260000      2.7576186E-32
   2.270000      3.2883893E-32
   2.280000      3.8525199E-32
   2.290000      4.4485802E-32
   2.300000      5.0745016E-32
   2.310000      5.7277737E-32
   2.320000      6.4054086E-32
   2.330000      7.1038456E-32
   2.340000      7.8189500E-32
   2.350000      8.5459726E-32
   2.360000      9.2795387E-32
   2.370000      1.0013638E-31
   2.380000      1.0741590E-31
   2.390000      1.1456040E-31
   2.400000      1.2148952E-31
   2.410000      1.2811594E-31
   2.420000      1.3434550E-31
   2.430000      1.4007724E-31
   2.440000      1.4520374E-31
   2.450000      1.4961128E-31
   2.460000      1.5318011E-31
   2.470000      1.5578469E-31
   2.480000      1.5729451E-31
   2.490000      1.5757458E-31
   2.500000      1.5648622E-31
   2.510000      1.5388781E-31
   2.520000      1.4963583E-31
   2.530000      1.4358591E-31
   2.540000      1.3559385E-31
   2.550000      1.2551734E-31
   2.560000      1.1321727E-31
   2.570000      9.8558977E-32
   2.580000      8.1414198E-32
   2.590000      6.1662819E-32
   2.600000      3.9194737E-32
   2.610000      1.3911817E-32
   2.620000     -1.4270152E-32
   2.630000     -4.5419056E-32
   2.640000     -7.9584559E-32
   2.650000     -1.1679594E-31
   2.660000     -1.5705961E-31
   2.670000     -2.0035692E-31
   2.680000     -2.4664204E-31
   2.690000     -2.9583951E-31
   2.700000     -3.4784218E-31
   2.710000     -4.0250901E-31
   2.720000     -4.5966301E-31
   2.730000     -5.1908918E-31
   2.740000     -5.8053265E-31
   2.750000     -6.4369713E-31
   2.760000     -7.0824306E-31
   2.770000     -7.7378655E-31
   2.780000     -8.3989805E-31
   2.790000     -9.0610161E-31
   2.800000     -9.7187456E-31
   2.810000     -1.0366468E-30
   2.820000     -1.0998013E-30
   2.830000     -1.1606745E-30
   2.840000     -1.2185575E-30
   2.850000     -1.2726971E-30
   2.860000     -1.3222980E-30
   2.870000     -1.3665252E-30
   2.880000     -1.4045067E-30
   2.890000     -1.4353376E-30
   2.900000     -1.4580834E-30
   2.910000     -1.4717857E-30
   2.920000     -1.4754666E-30
   2.930000     -1.4681354E-30
   2.940000     -1.4487950E-30
   2.950000     -1.4164493E-30
   2.960000     -1.3701109E-30
   2.970000     -1.3088103E-30
   2.980000     -1.2316045E-30
   2.990000     -1.1375876E-30
   3.000000     -1.0259006E-30
   3.010000     -8.9574287E-31
   3.020000     -7.4638395E-31
   3.030000     -5.7717501E-31
   3.040000     -3.8756209E-31
   3.050000     -1.7709886E-31
   3.060000      5.4539934E-32
   3.070000      3.0754557E-31
   3.080000      5.8196125E-31
   3.090000      8.7766772E-31
   3.100000      1.1943710E-30
   3.110000      1.5315879E-30
   3.120000      1.8886320E-30
   3.130000      2.2646015E-30
   3.140000      2.6583667E-30
   3.150000      3.0685578E-30
   3.160000      3.4935534E-30
   3.170000      3.9314708E-30
   3.180000      4.3801571E-30
   3.190000      4.8371799E-30
   3.200000      5.2998225E-30
   3.210000      5.7650783E-30
   3.220000      6.2296472E-30
   3.230000      6.6899351E-30
   3.240000      7.1420539E-30
   3.250000      7.5818265E-30
   3.260000      8.0047893E-30
   3.270000      8.4062035E-30
   3.280000      8.7810639E-30
   3.290000      9.1241142E-30
   3.300000      9.4298631E-30
   3.310000      9.6926058E-30
   3.320000      9.9064435E-30
   3.330000      1.0065313E-29
   3.340000      1.0163019E-29
   3.350000      1.0193264E-29
   3.360000      1.0149687E-29
   3.370000      1.0025905E-29
   3.380000      9.8155569E-30
   3.390000      9.5123553E-30
   3.400000      9.1101339E-30
   3.410000      8.6029056E-30
   3.420000      7.9849221E-30
   3.430000      7.2507350E-30
   3.440000      6.3952640E-30
   3.450000      5.4138647E-30
   3.460000      4.3023981E-30
   3.470000      3.0573102E-30
   3.480000      1.6757071E-30
   3.490000      1.5543338E-31
   3.500000     -1.5048480E-30
   3.510000     -3.3055721E-30
   3.520000     -5.2461929E-30
   3.530000     -7.3250977E-30
   3.540000     -9.5395237E-30
   3.550000     -1.1885480E-29
   3.560000     -1.4357665E-29
   3.570000     -1.6949392E-29
   3.580000     -1.9652513E-29
   3.590000     -2.2457348E-29
   3.600000     -2.5352620E-29
   3.610000     -2.8325389E-29
   3.620000     -3.1361007E-29
   3.630000     -3.4443063E-29
   3.640000     -3.7553353E-29
   3.650000     -4.0671837E-29
   3.660000     -4.3776631E-29
   3.670000     -4.6843982E-29
   3.680000     -4.9848285E-29
   3.690000     -5.2762091E-29
   3.700000     -5.5556134E-29
   3.710000     -5.8199370E-29
   3.720000     -6.0659041E-29
   3.730000     -6.2900746E-29
   3.740000     -6.4888510E-29
   3.750000     -6.6584923E-29
   3.760000     -6.7951256E-29
   3.770000     -6.8947582E-29
   3.780000     -6.9532962E-29
   3.790000     -6.9665617E-29
   3.800000     -6.9303151E-29
   3.810000     -6.8402736E-29
   3.820000     -6.6921407E-29
   3.830000     -6.4816288E-29
   3.840000     -6.2044892E-29
   3.850000     -5.8565459E-29
   3.860000     -5.4337249E-29
   3.870000     -4.9320920E-29
   3.880000     -4.3478898E-29
   3.890000     -3.6775765E-29
   3.900000     -2.9178675E-29
   3.910000     -2.0657803E-29
   3.920000     -1.1186778E-29
   3.930000     -7.4314226E-31
   3.940000      1.0691160E-29
   3.950000      2.3129272E-29
   3.960000      3.6578968E-29
   3.970000      5.1042115E-29
   3.980000      6.6514139E-29
   3.990000      8.2983531E-29
   4.000000      1.0043132E-28
   4.010000      1.1883060E-28
   4.020000      1.3814596E-28
   4.030000      1.5833301E-28
   4.040000      1.7933791E-28
   4.050000      2.0109689E-28
   4.060000      2.2353580E-28
   4.070000      2.4656973E-28
   4.080000      2.7010255E-28
   4.090000      2.9402660E-28
   4.100000      3.1822232E-28
   4.110000      3.4255813E-28
   4.120000      3.6688994E-28
   4.130000      3.9106121E-28
   4.140000      4.1490275E-28
   4.150000      4.3823255E-28
   4.160000      4.6085602E-28
   4.170000      4.8256587E-28
   4.180000      5.0314236E-28
   4.190000      5.2235356E-28
   4.200000      5.3995560E-28
   4.210000      5.5569309E-28
   4.220000      5.6929984E-28
   4.230000      5.8049917E-28
   4.240000      5.8900494E-28
   4.250000      5.9452234E-28
   4.260000      5.9674853E-28
   4.270000      5.9537423E-28
   4.280000      5.9008462E-28
   4.290000      5.8056075E-28
   4.300000      5.6648100E-28
   4.310000      5.4752267E-28
   4.320000      5.2336376E-28
   4.330000      4.9368479E-28
   4.340000      4.5817098E-28
   4.350000      4.1651403E-28
   4.360000      3.6841461E-28
   4.370000      3.1358490E-28
   4.380000      2.5175087E-28
   4.390000      1.8265510E-28
   4.400000      1.0605947E-28
   4.410000      2.1747947E-29
   4.420000     -7.0470198E-29
   4.430000     -1.7075749E-28
   4.440000     -2.7924496E-28
   4.450000     -3.9602900E-28
   4.460000     -5.2116805E-28
   4.470000     -6.5467901E-28
   4.480000     -7.9653362E-28
   4.490000     -9.4665543E-28
   4.500000     -1.1049164E-27
   4.510000     -1.2711330E-27
   4.520000     -1.4450623E-27
   4.530000     -1.6263995E-27
   4.540000     -1.8147737E-27
   4.550000     -2.0097451E-27
   4.560000     -2.2108004E-27
   4.570000     -2.4173520E-27
   4.580000     -2.6287322E-27
   4.590000     -2.8441922E-27
   4.600000     -3.0628986E-27
   4.610000     -3.2839305E-27
   4.620000     -3.5062783E-27
   4.630000     -3.7288403E-27
   4.640000     -3.9504232E-27
   4.650000     -4.1697366E-27
   4.660000     -4.3853964E-27
   4.670000     -4.5959217E-27
   4.680000     -4.7997344E-27
   4.690000     -4.9951605E-27
   4.700000     -5.1804307E-27
   4.710000     -5.3536812E-27
   4.720000     -5.5129544E-27
   4.730000     -5.6562043E-27
   4.740000     -5.7812954E-27
   4.750000     -5.8860101E-27
   4.760000     -5.9680505E-27
   4.770000     -6.0250438E-27
   4.780000     -6.0545502E-27
   4.790000     -6.0540656E-27
   4.800000     -6.0210325E-27
   4.810000     -5.9528453E-27
   4.820000     -5.8468606E-27
   4.830000     -5.7004071E-27
   4.840000     -5.5107959E-27
   4.850000     -5.2753309E-27
   4.860000     -4.9913236E-27
   4.870000     -4.6561040E-27
   4.880000     -4.2670361E-27
   4.890000     -3.8215327E-27
   4.900000     -3.3170711E-27
   4.910000     -2.7512121E-27
   4.920000     -2.1216150E-27
   4.930000     -1.4260582E-27
   4.940000     -6.6245813E-28
   4.950000      1.7110856E-28
   4.960000      1.0763849E-27
   4.970000      2.0549102E-27
   4.980000      3.1079974E-27
   4.990000      4.2367077E-27
   5.000000      5.4418287E-27
   5.010000      6.7238475E-27
   5.020000      8.0829238E-27
   5.030000      9.5188648E-27
   5.040000      1.1031097E-26
   5.050000      1.2618643E-26
   5.060000      1.4280086E-26
   5.070000      1.6013551E-26
   5.080000      1.7816672E-26
   5.090000      1.9686563E-26
   5.100000      2.1619795E-26
   5.110000      2.3612370E-26
   5.120000      2.5659682E-26
   5.130000      2.7756512E-26
   5.140000      2.9896984E-26
   5.150000      3.2074545E-26
   5.160000      3.4281957E-26
   5.170000      3.6511250E-26
   5.180000      3.8753719E-26
   5.190000      4.0999905E-26
   5.200000      4.3239565E-26
   5.210000      4.5461669E-26
   5.220000      4.7654388E-26
   5.230000      4.9805075E-26
   5.240000      5.1900262E-26
   5.250000      5.3925656E-26
   5.260000      5.5866149E-26
   5.270000      5.7705785E-26
   5.280000      5.9427813E-26
   5.290000      6.1014650E-26
   5.300000      6.2447924E-26
   5.310000      6.3708499E-26
   5.320000      6.4776463E-26
   5.330000      6.5631194E-26
   5.340000      6.6251368E-26
   5.350000      6.6615014E-26
   5.360000      6.6699533E-26
   5.370000      6.6481789E-26
   5.380000      6.5938128E-26
   5.390000      6.5044454E-26
   5.400000      6.3776317E-26
   5.410000      6.2108960E-26
   5.420000      6.0017431E-26
   5.430000      5.7476646E-26
   5.440000      5.4461515E-26
   5.450000      5.0947035E-26
   5.460000      4.6908412E-26
   5.470000      4.2321167E-26
   5.480000      3.7161293E-26
   5.490000      3.1405369E-26
   5.500000      2.5030709E-26
   5.510000      1.8015526E-26
   5.520000      1.0339098E-26
   5.530000      1.9819046E-27
   5.540000     -7.0741448E-27
   5.550000     -1.6845558E-26
   5.560000     -2.7347053E-26
   5.570000     -3.8591390E-26
   5.580000     -5.0589117E-26
   5.590000     -6.3348366E-26
   5.600000     -7.6874680E-26
   5.610000     -9.1170756E-26
   5.620000     -1.0623617E-25
   5.630000     -1.2206717E-25
   5.640000     -1.3865650E-25
   5.650000     -1.5599308E-25
   5.660000     -1.7406174E-25
   5.670000     -1.9284306E-25
   5.680000     -2.1231306E-25
   5.690000     -2.3244294E-25
   5.700000     -2.5319881E-25
   5.710000     -2.7454154E-25
   5.720000     -2.9642644E-25
   5.730000     -3.1880295E-25
   5.740000     -3.4161459E-25
   5.750000     -3.6479852E-25
   5.760000     -3.8828555E-25
   5.770000     -4.1199969E-25
   5.780000     -4.3585807E-25
   5.790000     -4.5977072E-25
   5.800000     -4.8364051E-25
   5.810000     -5.0736289E-25
   5.820000     -5.3082569E-25
   5.830000     -5.5390924E-25
   5.840000     -5.7648594E-25
   5.850000     -5.9842061E-25
   5.860000     -6.1956997E-25
   5.870000     -6.3978315E-25
   5.880000     -6.5890125E-25
   5.890000     -6.7675776E-25
   5.900000     -6.9317824E-25
   5.910000     -7.0798102E-25
   5.920000     -7.2097676E-25
   5.930000     -7.3196905E-25
   5.940000     -7.4075459E-25
   5.950000     -7.4712351E-25
   5.960000     -7.5085960E-25
   5.970000     -7.5174091E-25
   5.980000     -7.4953994E-25
   5.990000     -7.4402447E-25
   6.000000     -7.3495804E-25
   6.010000     -7.2210044E-25
   6.020000     -7.0520847E-25
   6.030000     -6.8403702E-25
   6.040000     -6.5833943E-25
   6.050000     -6.2786879E-25
   6.060000     -5.9237863E-25
   6.070000     -5.5162420E-25
   6.080000     -5.0536328E-25
   6.090000     -4.5335772E-25
   6.100000     -3.9537460E-25
   6.110000     -3.3118747E-25
   6.120000     -2.6057791E-25
   6.130000     -1.8333680E-25
   6.140000     -9.9266102E-26
   6.150000     -8.1805053E-27
   6.160000      9.0091058E-26
   6.170000      1.9570344E-25
   6.180000      3.0879359E-25
   6.190000      4.2947846E-25
   6.200000      5.5785320E-25
   6.210000      6.9398914E-25
   6.220000      8.3793160E-25
   6.230000      9.8969779E-25
   6.240000      1.1492746E-24
   6.250000      1.3166163E-24
   6.260000      1.4916429E-24
   6.270000      1.6742370E-24
   6.280000      1.8642418E-24
   6.290000      2.0614588E-24
   6.300000      2.2656462E-24
   6.310000      2.4765154E-24
   6.320000      2.6937289E-24
   6.330000      2.9168984E-24
   6.340000      3.1455838E-24
   6.350000      3.3792884E-24
   6.360000      3.6174585E-24
   6.370000      3.8594811E-24
   6.380000      4.1046815E-24
   6.390000      4.3523223E-24
   6.400000      4.6016012E-24
   6.410000      4.8516480E-24
   6.420000      5.1015260E-24
   6.430000      5.3502282E-24
   6.440000      5.5966770E-24
   6.450000      5.8397247E-24
   6.460000      6.0781500E-24
   6.470000      6.3106597E-24
   6.480000      6.5358877E-24
   6.490000      6.7523953E-24
   6.500000      6.9586706E-24
   6.510000      7.1531319E-24
   6.520000      7.3341242E-24
   6.530000      7.4999270E-24
   6.540000      7.6487504E-24
   6.550000      7.7787373E-24
   6.560000      7.8879701E-24
   6.570000      7.9744703E-24
   6.580000      8.0362033E-24
   6.590000      8.0710828E-24
   6.600000      8.0769740E-24
   6.610000      8.0516966E-24
   6.620000      7.9930361E-24
   6.630000      7.8987443E-24
   6.640000      7.7665478E-24
   6.650000      7.5941573E-24
   6.660000      7.3792684E-24
   6.670000      7.1195785E-24
   6.680000      6.8127905E-24
   6.690000      6.4566222E-24
   6.700000      6.0488198E-24
   6.710000      5.5871638E-24
   6.720000      5.0694837E-24
   6.730000      4.4936696E-24
   6.740000      3.8576821E-24
   6.750000      3.1595700E-24
   6.760000      2.3974800E-24
   6.770000      1.5696729E-24
   6.780000      6.7453770E-25
   6.790000     -2.8939259E-25
   6.800000     -1.3234245E-24
   6.810000     -2.4286882E-24
   6.820000     -3.6061222E-24
   6.830000     -4.8564553E-24
   6.840000     -6.1801852E-24
   6.850000     -7.5775620E-24
   6.860000     -9.0485730E-24
   6.870000     -1.0592924E-23
   6.880000     -1.2210018E-23
   6.890000     -1.3898932E-23
   6.900000     -1.5658408E-23
   6.910000     -1.7486820E-23
   6.920000     -1.9382174E-23
   6.930000     -2.1342073E-23
   6.940000     -2.3363708E-23
   6.950000     -2.5443828E-23
   6.960000     -2.7578735E-23
   6.970000     -2.9764255E-23
   6.980000     -3.1995734E-23
   6.990000     -3.4268014E-23
   7.000000     -3.6575419E-23
   7.010000     -3.8911735E-23
   7.020000     -4.1270208E-23
   7.030000     -4.3643524E-23
   7.040000     -4.6023796E-23
   7.050000     -4.8402558E-23
   7.060000     -5.0770763E-23