  -2.600000      0.0000000E+00
  -2.590000      0.0000000E+00
  -2.580000      0.0000000E+00
  -2.570000      0.0000000E+00
  -2.560000      0.0000000E+00
  -2.550000      0.0000000E+00
  -2.540000      0.0000000E+00
  -2.530000      0.0000000E+00
  -2.520000      0.0000000E+00
  -2.510000      0.0000000E+00
  -2.500000      0.0000000E+00
  -2.490000      0.0000000E+00
  -2.480000      0.0000000E+00
  -2.470000      0.0000000E+00
  -2.460000      0.0000000E+00
  -2.450000      0.0000000E+00
  -2.440000      0.0000000E+00
  -2.430000      0.0000000E+00
  -2.420000      0.0000000E+00
  -2.410000      0.0000000E+00
  -2.400000      0.0000000E+00
  -2.390000      0.0000000E+00
  -2.380000      0.0000000E+00
  -2.370000      0.0000000E+00
  -2.360000      0.0000000E+00
  -2.350000      0.0000000E+00
  -2.340000      0.0000000E+00
  -2.330000      0.0000000E+00
  -2.320000      0.0000000E+00
  -2.310000      0.0000000E+00
  -2.300000      0.0000000E+00
  -2.290000      0.0000000E+00
  -2.280000      0.0000000E+00
  -2.270000      0.0000000E+00
  -2.260000      0.0000000E+00
  -2.250000      0.0000000E+00
  -2.240000      0.0000000E+00
  -2.230000      0.0000000E+00
  -2.220000      0.0000000E+00
  -2.210000      0.0000000E+00
  -2.200000      0.0000000E+00
  -2.190000      0.0000000E+00
  -2.180000      0.0000000E+00
  -2.170000      0.0000000E+00
  -2.160000      0.0000000E+00
  -2.150000      0.0000000E+00
  -2.140000      0.0000000E+00
  -2.130000      0.0000000E+00
  -2.120000      0.0000000E+00
  -2.110000      0.0000000E+00
  -2.100000      0.0000000E+00
  -2.090000      0.0000000E+00
  -2.080000      0.0000000E+00
  -2.070000      0.0000000E+00
  -2.060000      0.0000000E+00
  -2.050000      0.0000000E+00
  -2.040000      0.0000000E+00
  -2.030000      0.0000000E+00
  -2.020000      0.0000000E+00
  -2.010000      0.0000000E+00
  -2.000000      0.0000000E+00
  -1.990000      0.0000000E+00
  -1.980000      0.0000000E+00
  -1.970000      0.0000000E+00
  -1.960000      0.0000000E+00
  -1.950000      0.0000000E+00
  -1.940000      0.0000000E+00
  -1.930000      0.0000000E+00
  -1.920000      0.0000000E+00
  -1.910000      0.0000000E+00
  -1.900000      0.0000000E+00
  -1.890000      0.0000000E+00
  -1.880000      0.0000000E+00
  -1.870000      0.0000000E+00
  -1.860000      0.0000000E+00
  -1.850000      0.0000000E+00
  -1.840000      0.0000000E+00
  -1.830000      0.0000000E+00
  -1.820000      0.0000000E+00
  -1.810000      0.0000000E+00
  -1.800000      0.0000000E+00
  -1.790000      0.0000000E+00
  -1.780000      0.0000000E+00
  -1.770000      0.0000000E+00
  -1.760000      0.0000000E+00
  -1.750000      0.0000000E+00
  -1.740000      0.0000000E+00
  -1.730000      0.0000000E+00
  -1.720000      0.0000000E+00
  -1.710000      0.0000000E+00
  -1.700000      0.0000000E+00
  -1.690000      0.0000000E+00
  -1.680000      0.0000000E+00
  -1.670000      0.0000000E+00
  -1.660000      0.0000000E+00
  -1.650000      0.0000000E+00
  -1.640000      0.0000000E+00
  -1.630000      0.0000000E+00
  -1.620000      0.0000000E+00
  -1.610000      0.0000000E+00
  -1.600000      0.0000000E+00
  -1.590000      0.0000000E+00
  -1.580000      0.0000000E+00
  -1.570000      0.0000000E+00
  -1.560000      0.0000000E+00
  -1.550000      0.0000000E+00
  -1.540000      0.0000000E+00
  -1.530000      0.0000000E+00
  -1.520000      0.0000000E+00
  -1.510000      0.0000000E+00
  -1.500000      0.0000000E+00
  -1.490000      0.0000000E+00
  -1.480000      0.0000000E+00
  -1.470000      0.0000000E+00
  -1.460000      0.0000000E+00
  -1.450000      0.0000000E+00
  -1.440000      0.0000000E+00
  -1.430000      0.0000000E+00
  -1.420000      0.0000000E+00
  -1.410000      0.0000000E+00
  -1.400000      0.0000000E+00
  -1.390000      0.0000000E+00
  -1.380000      0.0000000E+00
  -1.370000      0.0000000E+00
  -1.360000      0.0000000E+00
  -1.350000      0.0000000E+00
  -1.340000      0.0000000E+00
  -1.330000      0.0000000E+00
  -1.320000      0.0000000E+00
  -1.310000      0.0000000E+00
  -1.300000      0.0000000E+00
  -1.290000      0.0000000E+00
  -1.280000      0.0000000E+00
  -1.270000      0.0000000E+00
  -1.260000      0.0000000E+00
  -1.250000      0.0000000E+00
  -1.240000      0.0000000E+00
  -1.230000      0.0000000E+00
  -1.220000      0.0000000E+00
  -1.210000      0.0000000E+00
  -1.200000      0.0000000E+00
  -1.190000      0.0000000E+00
  -1.180000      0.0000000E+00
  -1.170000      0.0000000E+00
  -1.160000      0.0000000E+00
  -1.150000      0.0000000E+00
  -1.140000      0.0000000E+00
  -1.130000      0.0000000E+00
  -1.120000      0.0000000E+00
  -1.110000      0.0000000E+00
  -1.100000      0.0000000E+00
  -1.090000      0.0000000E+00
  -1.080000      0.0000000E+00
  -1.070000      0.0000000E+00
  -1.060000      0.0000000E+00
  -1.050000      0.0000000E+00
  -1.040000      0.0000000E+00
  -1.030000      0.0000000E+00
  -1.020000      0.0000000E+00
  -1.010000      0.0000000E+00
  -1.000000      0.0000000E+00
 -0.9900000      0.0000000E+00
 -0.9800000      0.0000000E+00
 -0.9700000      0.0000000E+00
 -0.9600000      0.0000000E+00
 -0.9500000      0.0000000E+00
 -0.9400000      0.0000000E+00
 -0.9300000      0.0000000E+00
 -0.9200000      0.0000000E+00
 -0.9100000      0.0000000E+00
 -0.9000000      0.0000000E+00
 -0.8900000      0.0000000E+00
 -0.8800000      0.0000000E+00
 -0.8700000      0.0000000E+00
 -0.8600000      0.0000000E+00
 -0.8500000      0.0000000E+00
 -0.8400000      0.0000000E+00
 -0.8300000      0.0000000E+00
 -0.8200000      0.0000000E+00
 -0.8100000      0.0000000E+00
 -0.8000000      0.0000000E+00
 -0.7900000      0.0000000E+00
 -0.7800000      0.0000000E+00
 -0.7700000      0.0000000E+00
 -0.7600000      0.0000000E+00
 -0.7500000      0.0000000E+00
 -0.7400000      0.0000000E+00
 -0.7300000      0.0000000E+00
 -0.7200000      0.0000000E+00
 -0.7100000      0.0000000E+00
 -0.7000000      0.0000000E+00
 -0.6900000      0.0000000E+00
 -0.6800000      0.0000000E+00
 -0.6700000      0.0000000E+00
 -0.6600000      0.0000000E+00
 -0.6500000      0.0000000E+00
 -0.6400000      0.0000000E+00
 -0.6300000      0.0000000E+00
 -0.6200000      0.0000000E+00
 -0.6100000      0.0000000E+00
 -0.6000000      0.0000000E+00
 -0.5900000      0.0000000E+00
 -0.5800000      0.0000000E+00
 -0.5700000      0.0000000E+00
 -0.5600000      0.0000000E+00
 -0.5500000      0.0000000E+00
 -0.5400000      0.0000000E+00
 -0.5300000      0.0000000E+00
 -0.5200000      0.0000000E+00
 -0.5100000      0.0000000E+00
 -0.5000000      0.0000000E+00
 -0.4900000      0.0000000E+00
 -0.4800000      0.0000000E+00
 -0.4700000      0.0000000E+00
 -0.4600000      0.0000000E+00
 -0.4500000      0.0000000E+00
 -0.4400000      0.0000000E+00
 -0.4300000      0.0000000E+00
 -0.4200000      0.0000000E+00
 -0.4100000      0.0000000E+00
 -0.4000000      0.0000000E+00
 -0.3900000      0.0000000E+00
 -0.3800000      0.0000000E+00
 -0.3700000      0.0000000E+00
 -0.3600000      0.0000000E+00
 -0.3500000      0.0000000E+00
 -0.3400000      0.0000000E+00
 -0.3300000      0.0000000E+00
 -0.3200000      0.0000000E+00
 -0.3100000      0.0000000E+00
 -0.3000000      0.0000000E+00
 -0.2900000      0.0000000E+00
 -0.2800000      0.0000000E+00
 -0.2700000      0.0000000E+00
 -0.2600000      0.0000000E+00
 -0.2500000      0.0000000E+00
 -0.2400000      0.0000000E+00
 -0.2300000      0.0000000E+00
 -0.2200000      0.0000000E+00
 -0.2100000      0.0000000E+00
 -0.2000000      0.0000000E+00
 -0.1900000      0.0000000E+00
 -0.1800000      0.0000000E+00
 -0.1700000      0.0000000E+00
 -0.1600000      0.0000000E+00
 -0.1500000      0.0000000E+00
 -0.1400000      0.0000000E+00
 -0.1300000      0.0000000E+00
 -0.1200000      0.0000000E+00
 -0.1100000      0.0000000E+00
 -0.1000000      0.0000000E+00
 -9.0000004E-02  0.0000000E+00
 -7.9999998E-02  0.0000000E+00
 -7.0000000E-02  0.0000000E+00
 -5.9999999E-02  0.0000000E+00
 -5.0000001E-02  0.0000000E+00
 -3.9999999E-02  0.0000000E+00
 -2.9999999E-02  0.0000000E+00
 -2.0000000E-02  0.0000000E+00
 -9.9999998E-03  0.0000000E+00
 -3.4694470E-17  0.0000000E+00
  9.9999998E-03  0.0000000E+00
  2.0000000E-02  0.0000000E+00
  2.9999999E-02  0.0000000E+00
  3.9999999E-02  0.0000000E+00
  5.0000001E-02  0.0000000E+00
  5.9999999E-02  0.0000000E+00
  7.0000000E-02  0.0000000E+00
  7.9999998E-02  0.0000000E+00
  9.0000004E-02  0.0000000E+00
  0.1000000      0.0000000E+00
  0.1100000      0.0000000E+00
  0.1200000      0.0000000E+00
  0.1300000      0.0000000E+00
  0.1400000      0.0000000E+00
  0.1500000      0.0000000E+00
  0.1600000      0.0000000E+00
  0.1700000      0.0000000E+00
  0.1800000      0.0000000E+00
  0.1900000      0.0000000E+00
  0.2000000      0.0000000E+00
  0.2100000      0.0000000E+00
  0.2200000      0.0000000E+00
  0.2300000      0.0000000E+00
  0.2400000      0.0000000E+00
  0.2500000      0.0000000E+00
  0.2600000      0.0000000E+00
  0.2700000      0.0000000E+00
  0.2800000      0.0000000E+00
  0.2900000      0.0000000E+00
  0.3000000      0.0000000E+00
  0.3100000      0.0000000E+00
  0.3200000      0.0000000E+00
  0.3300000      0.0000000E+00
  0.3400000      0.0000000E+00
  0.3500000      0.0000000E+00
  0.3600000      0.0000000E+00
  0.3700000      0.0000000E+00
  0.3800000      0.0000000E+00
  0.3900000      0.0000000E+00
  0.4000000      0.0000000E+00
  0.4100000      0.0000000E+00
  0.4200000      0.0000000E+00
  0.4300000      0.0000000E+00
  0.4400000      0.0000000E+00
  0.4500000      0.0000000E+00
  0.4600000      0.0000000E+00
  0.4700000     -3.8036094E-38
  0.4800000     -6.9205557E-38
  0.4900000     -1.0122444E-37
  0.5000000     -1.3608350E-37
  0.5100000     -1.7317966E-37
  0.5200000     -2.1238214E-37
  0.5300000     -2.5788492E-37
  0.5400000     -3.0474125E-37
  0.5500000     -3.3719985E-37
  0.5600000     -3.5812572E-37
  0.5700000     -3.7814158E-37
  0.5800000     -3.7948189E-37
  0.5900000     -3.4325978E-37
  0.6000000     -2.7846110E-37
  0.6100000     -2.1224358E-37
  0.6200000     -1.3154442E-37
  0.6300000      0.0000000E+00
  0.6400000      2.1384539E-37
  0.6500000      4.7043939E-37
  0.6600000      7.7490289E-37
  0.6700000      1.1172854E-36
  0.6800000      1.5030394E-36
  0.6900000      1.8943525E-36
  0.7000000      2.2828819E-36
  0.7100000      2.7077188E-36
  0.7200000      3.1586234E-36
  0.7300000      3.6281109E-36
  0.7400000      4.1175646E-36
  0.7500000      4.6956400E-36
  0.7600000      5.4203003E-36
  0.7700000      6.3098677E-36
  0.7800000      7.3256106E-36
  0.7900000      8.4025892E-36
  0.8000000      9.5846426E-36
  0.8100000      1.0841451E-35
  0.8200000      1.2158193E-35
  0.8300000      1.3545134E-35
  0.8400000      1.4760246E-35
  0.8500000      1.5741791E-35
  0.8600000      1.6651685E-35
  0.8700000      1.7364821E-35
  0.8800000      1.7772411E-35
  0.8900000      1.7852554E-35
  0.9000000      1.7631422E-35
  0.9100000      1.7114845E-35
  0.9200000      1.6258119E-35
  0.9300000      1.4874293E-35
  0.9400000      1.2885197E-35
  0.9500000      1.0534500E-35
  0.9600000      7.9729024E-36
  0.9700000      5.1152727E-36
  0.9800000      1.8600846E-36
  0.9900000     -1.8682972E-36
   1.000000     -6.0289393E-36
   1.010000     -1.0489493E-35
   1.020000     -1.5522767E-35
   1.030000     -2.1190803E-35
   1.040000     -2.7226891E-35
   1.050000     -3.3712208E-35
   1.060000     -4.0718413E-35
   1.070000     -4.7821498E-35
   1.080000     -5.4984127E-35
   1.090000     -6.2507727E-35
   1.100000     -7.0383930E-35
   1.110000     -7.8557002E-35
   1.120000     -8.6760850E-35
   1.130000     -9.4800428E-35
   1.140000     -1.0290190E-34
   1.150000     -1.1081824E-34
   1.160000     -1.1847409E-34
   1.170000     -1.2598605E-34
   1.180000     -1.3319437E-34
   1.190000     -1.3993475E-34
   1.200000     -1.4521489E-34
   1.210000     -1.4909396E-34
   1.220000     -1.5194557E-34
   1.230000     -1.5313524E-34
   1.240000     -1.5244576E-34
   1.250000     -1.5036571E-34
   1.260000     -1.4721758E-34
   1.270000     -1.4248761E-34
   1.280000     -1.3599978E-34
   1.290000     -1.2880863E-34
   1.300000     -1.2082400E-34
   1.310000     -1.1102862E-34
   1.320000     -9.9111370E-35
   1.330000     -8.3720102E-35
   1.340000     -6.5013045E-35
   1.350000     -4.3723419E-35
   1.360000     -1.8716935E-35
   1.370000      9.3397231E-36
   1.380000      3.9021537E-35
   1.390000      6.8950062E-35
   1.400000      9.7894354E-35
   1.410000      1.2645783E-34
   1.420000      1.5161899E-34
   1.430000      1.7191156E-34
   1.440000      1.9348922E-34
   1.450000      2.1557724E-34
   1.460000      2.3656688E-34
   1.470000      2.5996338E-34
   1.480000      2.8223236E-34
   1.490000      2.9921444E-34
   1.500000      3.1161614E-34
   1.510000      3.2198728E-34
   1.520000      3.2989062E-34
   1.530000      3.3003333E-34
   1.540000      3.2222183E-34
   1.550000      3.0718186E-34
   1.560000      2.8186878E-34
   1.570000      2.4703443E-34
   1.580000      2.0065592E-34
   1.590000      1.4273880E-34
   1.600000      7.6869163E-35
   1.610000      3.5192219E-36
   1.620000     -7.7841781E-35
   1.630000     -1.6647095E-34
   1.640000     -2.6169833E-34
   1.650000     -3.6219236E-34
   1.660000     -4.6641866E-34
   1.670000     -5.7559536E-34
   1.680000     -6.8891591E-34
   1.690000     -8.0429243E-34
   1.700000     -9.1960034E-34
   1.710000     -1.0323276E-33
   1.720000     -1.1402371E-33
   1.730000     -1.2419805E-33
   1.740000     -1.3355894E-33
   1.750000     -1.4145329E-33
   1.760000     -1.4729742E-33
   1.770000     -1.5110145E-33
   1.780000     -1.5289859E-33
   1.790000     -1.5202300E-33
   1.800000     -1.4795157E-33
   1.810000     -1.4060680E-33
   1.820000     -1.2941569E-33
   1.830000     -1.1382863E-33
   1.840000     -9.3413900E-34
   1.850000     -6.7895672E-34
   1.860000     -3.6776535E-34
   1.870000      4.3966818E-36
   1.880000      4.3912639E-34
   1.890000      9.4030263E-34
   1.900000      1.5114985E-33
   1.910000      2.1543634E-33
   1.920000      2.8699421E-33
   1.930000      3.6601357E-33
   1.940000      4.5258244E-33
   1.950000      5.4676287E-33
   1.960000      6.4827184E-33
   1.970000      7.5673911E-33
   1.980000      8.7193572E-33
   1.990000      9.9327105E-33
   2.000000      1.1202852E-32
   2.010000      1.2519369E-32
   2.020000      1.3872669E-32
   2.030000      1.5253894E-32
   2.040000      1.6647610E-32
   2.050000      1.8039304E-32
   2.060000      1.9411596E-32
   2.070000      2.0745537E-32
   2.080000      2.2020502E-32
   2.090000      2.3213448E-32
   2.100000      2.4300119E-32
   2.110000      2.5254335E-32
   2.120000      2.6047547E-32
   2.130000      2.6650347E-32
   2.140000      2.7031083E-32
   2.150000      2.7157184E-32
   2.160000      2.6995622E-32
   2.170000      2.6511350E-32
   2.180000      2.5670281E-32
   2.190000      2.4438072E-32
   2.200000      2.2779062E-32
   2.210000      2.0658714E-32
   2.220000      1.8043590E-32
   2.230000      1.4901513E-32
   2.240000      1.1201840E-32
   2.250000      6.9164266E-33
   2.260000      2.0206208E-33
   2.270000     -3.5075124E-33
   2.280000     -9.6857818E-33
   2.290000     -1.6526681E-32
   2.300000     -2.4037608E-32
   2.310000     -3.2219980E-32
   2.320000     -4.1068499E-32
   2.330000     -5.0570419E-32
   2.340000     -6.0705026E-32
   2.350000     -7.1442397E-32
   2.360000     -8.2744205E-32
   2.370000     -9.4561844E-32
   2.380000     -1.0683550E-31
   2.390000     -1.1949436E-31
   2.400000     -1.3245548E-31
   2.410000     -1.4562424E-31
   2.420000     -1.5889304E-31
   2.430000     -1.7214188E-31
   2.440000     -1.8523606E-31
   2.450000     -1.9802733E-31
   2.460000     -2.1035528E-31
   2.470000     -2.2204531E-31
   2.480000     -2.3290942E-31
   2.490000     -2.4274664E-31
   2.500000     -2.5134350E-31
   2.510000     -2.5847477E-31
   2.520000     -2.6390424E-31
   2.530000     -2.6738542E-31
   2.540000     -2.6866372E-31
   2.550000     -2.6747737E-31
   2.560000     -2.6355855E-31
   2.570000     -2.5663621E-31
   2.580000     -2.4643750E-31
   2.590000     -2.3269108E-31
   2.600000     -2.1512913E-31
   2.610000     -1.9348991E-31
   2.620000     -1.6752160E-31
   2.630000     -1.3698540E-31
   2.640000     -1.0165870E-31
   2.650000     -6.1338841E-32
   2.660000     -1.5847805E-32
   2.670000      3.4963966E-32
   2.680000      9.1213577E-32
   2.690000      1.5298132E-31
   2.700000      2.2030593E-31
   2.710000      2.9318014E-31
   2.720000      3.7154628E-31
   2.730000      4.5529134E-31
   2.740000      5.4424302E-31
   2.750000      6.3816483E-31
   2.760000      7.3675162E-31
   2.770000      8.3962580E-31
   2.780000      9.4633342E-31
   2.790000      1.0563399E-30
   2.800000      1.1690272E-30
   2.810000      1.2836901E-30
   2.820000      1.3995344E-30
   2.830000      1.5156735E-30
   2.840000      1.6311280E-30
   2.850000      1.7448231E-30
   2.860000      1.8555899E-30
   2.870000      1.9621641E-30
   2.880000      2.0631880E-30
   2.890000      2.1572114E-30
   2.900000      2.2426956E-30
   2.910000      2.3180167E-30
   2.920000      2.3814701E-30
   2.930000      2.4312772E-30
   2.940000      2.4655921E-30
   2.950000      2.4825100E-30
   2.960000      2.4800777E-30
   2.970000      2.4563040E-30
   2.980000      2.4091723E-30
   2.990000      2.3366550E-30
   3.000000      2.2367280E-30
   3.010000      2.1073879E-30
   3.020000      1.9466704E-30
   3.030000      1.7526692E-30
   3.040000      1.5235572E-30
   3.050000      1.2576079E-30
   3.060000      9.5322012E-31
   3.070000      6.0894068E-31
   3.080000      2.2349065E-31
   3.090000     -2.0420831E-31
   3.100000     -6.7500685E-31
   3.110000     -1.1895009E-30
   3.120000     -1.7480028E-30
   3.130000     -2.3505129E-30
   3.140000     -2.9966923E-30
   3.150000     -3.6858323E-30
   3.160000     -4.4168281E-30
   3.170000     -5.1881483E-30
   3.180000     -5.9978123E-30
   3.190000     -6.8433595E-30
   3.200000     -7.7218250E-30
   3.210000     -8.6297197E-30
   3.220000     -9.5630035E-30
   3.230000     -1.0517069E-29
   3.240000     -1.1486722E-29
   3.250000     -1.2466164E-29
   3.260000     -1.3448987E-29
   3.270000     -1.4428157E-29
   3.280000     -1.5396012E-29
   3.290000     -1.6344263E-29
   3.300000     -1.7263992E-29
   3.310000     -1.8145665E-29
   3.320000     -1.8979141E-29
   3.330000     -1.9753693E-29
   3.340000     -2.0458033E-29
   3.350000     -2.1080335E-29
   3.360000     -2.1608287E-29
   3.370000     -2.2029121E-29
   3.380000     -2.2329670E-29
   3.390000     -2.2496427E-29
   3.400000     -2.2515609E-29
   3.410000     -2.2373235E-29
   3.420000     -2.2055198E-29
   3.430000     -2.1547363E-29
   3.440000     -2.0835661E-29
   3.450000     -1.9906192E-29
   3.460000     -1.8745333E-29
   3.470000     -1.7339871E-29
   3.480000     -1.5677112E-29
   3.490000     -1.3745029E-29
   3.500000     -1.1532386E-29
   3.510000     -9.0288942E-30
   3.520000     -6.2253635E-30
   3.530000     -3.1138469E-30
   3.540000      3.1219054E-31
   3.550000      4.0577128E-30
   3.560000      8.1259461E-30
   3.570000      1.2518207E-29
   3.580000      1.7233736E-29
   3.590000      2.2269528E-29
   3.600000      2.7620162E-29
   3.610000      3.3277635E-29
   3.620000      3.9231187E-29
   3.630000      4.5467165E-29
   3.640000      5.1968836E-29
   3.650000      5.8716248E-29
   3.660000      6.5686098E-29
   3.670000      7.2851586E-29
   3.680000      8.0182320E-29
   3.690000      8.7644179E-29
   3.700000      9.5199217E-29
   3.710000      1.0280562E-28
   3.720000      1.1041766E-28
   3.730000      1.1798556E-28
   3.740000      1.2545559E-28
   3.750000      1.3277006E-28
   3.760000      1.3986728E-28
   3.770000      1.4668173E-28
   3.780000      1.5314406E-28
   3.790000      1.5918130E-28
   3.800000      1.6471694E-28
   3.810000      1.6967119E-28
   3.820000      1.7396119E-28
   3.830000      1.7750126E-28
   3.840000      1.8020323E-28
   3.850000      1.8197678E-28
   3.860000      1.8272981E-28
   3.870000      1.8236888E-28
   3.880000      1.8079968E-28
   3.890000      1.7792756E-28
   3.900000      1.7365800E-28
   3.910000      1.6789730E-28
   3.920000      1.6055312E-28
   3.930000      1.5153523E-28
   3.940000      1.4075616E-28
   3.950000      1.2813193E-28
   3.960000      1.1358291E-28
   3.970000      9.7034640E-29
   3.980000      7.8418571E-29
   3.990000      5.7673037E-29
   4.000000      3.4744173E-29
   4.010000      9.5868489E-30
   4.020000     -1.7834399E-29
   4.030000     -4.7544352E-29
   4.040000     -7.9556110E-29
   4.050000     -1.1387005E-28
   4.060000     -1.5047292E-28
   4.070000     -1.8933662E-28
   4.080000     -2.3041732E-28
   4.090000     -2.7365447E-28
   4.100000     -3.1896965E-28
   4.110000     -3.6626582E-28
   4.120000     -4.1542612E-28
   4.130000     -4.6631314E-28
   4.140000     -5.1876820E-28
   4.150000     -5.7261027E-28
   4.160000     -6.2763524E-28
   4.170000     -6.8361557E-28
   4.180000     -7.4029940E-28
   4.190000     -7.9741025E-28
   4.200000     -8.5464653E-28
   4.210000     -9.1168131E-28
   4.220000     -9.6816209E-28
   4.230000     -1.0237111E-27
   4.240000     -1.0779249E-27
   4.250000     -1.1303748E-27
   4.260000     -1.1806074E-27
   4.270000     -1.2281453E-27
   4.280000     -1.2724873E-27
   4.290000     -1.3131099E-27
   4.300000     -1.3494680E-27
   4.310000     -1.3809962E-27
   4.320000     -1.4071103E-27
   4.330000     -1.4272095E-27
   4.340000     -1.4406774E-27
   4.350000     -1.4468847E-27
   4.360000     -1.4451915E-27
   4.370000     -1.4349496E-27
   4.380000     -1.4155057E-27
   4.390000     -1.3862043E-27
   4.400000     -1.3463904E-27
   4.410000     -1.2954140E-27
   4.420000     -1.2326335E-27
   4.430000     -1.1574194E-27
   4.440000     -1.0691587E-27
   4.450000     -9.6725989E-28
   4.460000     -8.5115704E-28
   4.470000     -7.2031484E-28
   4.480000     -5.7423431E-28
   4.490000     -4.1245773E-28
   4.500000     -2.3457417E-28
   4.510000     -4.0225563E-29
   4.520000      1.7088744E-28
   4.530000      3.9899977E-28
   4.540000      6.4427542E-28
   4.550000      9.0680081E-28
   4.560000      1.1865790E-27
   4.570000      1.4835233E-27
   4.580000      1.7974504E-27
   4.590000      2.1280740E-27
   4.600000      2.4749981E-27
   4.610000      2.8377120E-27
   4.620000      3.2155823E-27
   4.630000      3.6078476E-27
   4.640000      4.0136130E-27
   4.650000      4.4318429E-27
   4.660000      4.8613569E-27
   4.670000      5.3008237E-27
   4.680000      5.7487561E-27
   4.690000      6.2035074E-27
   4.700000      6.6632662E-27
   4.710000      7.1260540E-27
   4.720000      7.5897194E-27
   4.730000      8.0519387E-27
   4.740000      8.5102106E-27
   4.750000      8.9618574E-27
   4.760000      9.4040224E-27
   4.770000      9.8336727E-27
   4.780000      1.0247595E-26
   4.790000      1.0642405E-26
   4.800000      1.1014541E-26
   4.810000      1.1360277E-26
   4.820000      1.1675718E-26
   4.830000      1.1956816E-26
   4.840000      1.2199369E-26
   4.850000      1.2399031E-26
   4.860000      1.2551327E-26
   4.870000      1.2651656E-26
   4.880000      1.2695310E-26
   4.890000      1.2677482E-26
   4.900000      1.2593287E-26
   4.910000      1.2437773E-26
   4.920000      1.2205944E-26
   4.930000      1.1892775E-26
   4.940000      1.1493240E-26
   4.950000      1.1002325E-26
   4.960000      1.0415061E-26
   4.970000      9.7265471E-27
   4.980000      8.9319762E-27
   4.990000      8.0266659E-27
   5.000000      7.0060909E-27
   5.010000      5.8659108E-27
   5.020000      4.6020061E-27
   5.030000      3.2105137E-27
   5.040000      1.6878654E-27
   5.050000      3.0820293E-29
   5.060000     -1.7634895E-27
   5.070000     -3.6975205E-27
   5.080000     -5.7732774E-27
   5.090000     -7.9922665E-27
   5.100000     -1.0355454E-26
   5.110000     -1.2863223E-26
   5.120000     -1.5515321E-26
   5.130000     -1.8310813E-26
   5.140000     -2.1248041E-26
   5.150000     -2.4324571E-26
   5.160000     -2.7537147E-26
   5.170000     -3.0881643E-26
   5.180000     -3.4353013E-26
   5.190000     -3.7945236E-26
   5.200000     -4.1651292E-26
   5.210000     -4.5463086E-26
   5.220000     -4.9371427E-26
   5.230000     -5.3365972E-26
   5.240000     -5.7435175E-26
   5.250000     -6.1566280E-26
   5.260000     -6.5745246E-26
   5.270000     -6.9956727E-26
   5.280000     -7.4184054E-26
   5.290000     -7.8409169E-26
   5.300000     -8.2612657E-26
   5.310000     -8.6773652E-26
   5.320000     -9.0869892E-26
   5.330000     -9.4877657E-26
   5.340000     -9.8771776E-26
   5.350000     -1.0252565E-25
   5.360000     -1.0611121E-25
   5.370000     -1.0949896E-25
   5.380000     -1.1265798E-25
   5.390000     -1.1555598E-25
   5.400000     -1.1815928E-25
   5.410000     -1.2043292E-25
   5.420000     -1.2234060E-25
   5.430000     -1.2384488E-25
   5.440000     -1.2490711E-25
   5.450000     -1.2548762E-25
   5.460000     -1.2554571E-25
   5.470000     -1.2503982E-25
   5.480000     -1.2392762E-25
   5.490000     -1.2216609E-25
   5.500000     -1.1971171E-25
   5.510000     -1.1652059E-25
   5.520000     -1.1254854E-25
   5.530000     -1.0775141E-25
   5.540000     -1.0208515E-25
   5.550000     -9.5505991E-26
   5.560000     -8.7970724E-26
   5.570000     -7.9436919E-26
   5.580000     -6.9863124E-26
   5.590000     -5.9209126E-26
   5.600000     -4.7436200E-26
   5.610000     -3.4507472E-26
   5.620000     -2.0388116E-26
   5.630000     -5.0456622E-27
   5.640000      1.1549627E-26
   5.650000      2.9424432E-26
   5.660000      4.8602093E-26
   5.670000      6.9102212E-26
   5.680000      9.0940243E-26
   5.690000      1.1412722E-25
   5.700000      1.3866932E-25
   5.710000      1.6456743E-25
   5.720000      1.9181678E-25
   5.730000      2.2040650E-25
   5.740000      2.5031935E-25
   5.750000      2.8153105E-25
   5.760000      3.1401003E-25
   5.770000      3.4771702E-25
   5.780000      3.8260439E-25
   5.790000      4.1861614E-25
   5.800000      4.5568703E-25
   5.810000      4.9374242E-25
   5.820000      5.3269790E-25
   5.830000      5.7245871E-25
   5.840000      6.1291943E-25
   5.850000      6.5396362E-25
   5.860000      6.9546342E-25
   5.870000      7.3727941E-25
   5.880000      7.7926007E-25
   5.890000      8.2124143E-25
   5.900000      8.6304706E-25
   5.910000      9.0448750E-25
   5.920000      9.4536075E-25
   5.930000      9.8545126E-25
   5.940000      1.0245302E-24
   5.950000      1.0623558E-24
   5.960000      1.0986727E-24
   5.970000      1.1332124E-24
   5.980000      1.1656932E-24
   5.990000      1.1958201E-24
   6.000000      1.2232858E-24
   6.010000      1.2477704E-24
   6.020000      1.2689417E-24
   6.030000      1.2864561E-24
   6.040000      1.2999588E-24
   6.050000      1.3090846E-24
   6.060000      1.3134584E-24
   6.070000      1.3126964E-24
   6.080000      1.3064064E-24
   6.090000      1.2941893E-24
   6.100000      1.2756402E-24
   6.110000      1.2503493E-24
   6.120000      1.2179033E-24
   6.130000      1.1778869E-24
   6.140000      1.1298845E-24
   6.150000      1.0734817E-24
   6.160000      1.0082671E-24
   6.170000      9.3383411E-25
   6.180000      8.4978315E-25
   6.190000      7.5572357E-25
   6.200000      6.5127627E-25
   6.210000      5.3607575E-25
   6.220000      4.0977298E-25
   6.230000      2.7203765E-25
   6.240000      1.2256125E-25
   6.250000     -3.8940260E-26
   6.260000     -2.1272305E-25
   6.270000     -3.9901309E-25
   6.280000     -5.9800242E-25
   6.290000     -8.0984574E-25
   6.300000     -1.0346574E-24
   6.310000     -1.2725078E-24
   6.320000     -1.5234193E-24
   6.330000     -1.7873638E-24
   6.340000     -2.0642579E-24
   6.350000     -2.3539598E-24
   6.360000     -2.6562653E-24
   6.370000     -2.9709040E-24
   6.380000     -3.2975356E-24
   6.390000     -3.6357467E-24
   6.400000     -3.9850452E-24
   6.410000     -4.3448593E-24
   6.420000     -4.7145317E-24
   6.430000     -5.0933175E-24
   6.440000     -5.4803792E-24
   6.450000     -5.8747836E-24
   6.460000     -6.2755009E-24
   6.470000     -6.6813986E-24
   6.480000     -7.0912395E-24
   6.490000     -7.5036820E-24
   6.500000     -7.9172692E-24
   6.510000     -8.3304390E-24
   6.520000     -8.7415121E-24
   6.530000     -9.1486944E-24
   6.540000     -9.5500771E-24
   6.550000     -9.9436343E-24
   6.560000     -1.0327222E-23
   6.570000     -1.0698578E-23
   6.580000     -1.1055324E-23
   6.590000     -1.1394966E-23
   6.600000     -1.1714894E-23
   6.610000     -1.2012388E-23
   6.620000     -1.2284618E-23
   6.630000     -1.2528645E-23
   6.640000     -1.2741431E-23
   6.650000     -1.2919842E-23
   6.660000     -1.3060648E-23
   6.670000     -1.3160535E-23
   6.680000     -1.3216113E-23
   6.690000     -1.3223918E-23
   6.700000     -1.3180423E-23
   6.710000     -1.3082051E-23
   6.720000     -1.2925181E-23
   6.730000     -1.2706164E-23
   6.740000     -1.2421330E-23
   6.750000     -1.2067000E-23
   6.760000     -1.1639507E-23
   6.770000     -1.1135206E-23
   6.780000     -1.0550492E-23
   6.790000     -9.8818176E-24
   6.800000     -9.1257086E-24
   6.810000     -8.2787844E-24
   6.820000     -7.3377743E-24
   6.830000     -6.2995458E-24
   6.840000     -5.1611185E-24
   6.850000     -3.9196901E-24
   6.860000     -2.5726618E-24
   6.870000     -1.1176596E-24
   6.880000      4.4743969E-25
   6.890000      2.1244851E-24
   6.900000      3.9150181E-24
   6.910000      5.8202517E-24
   6.920000      7.8410407E-24
   6.930000      9.9778527E-24
   6.940000      1.2230741E-23
   6.950000      1.4599310E-23
   6.960000      1.7082695E-23
   6.970000      1.9679524E-23
   6.980000      2.2387896E-23
   6.990000      2.5205346E-23
   7.000000      2.8128811E-23
   7.010000      3.1154613E-23
   7.020000      3.4278417E-23
   7.030000      3.7495225E-23
   7.040000      4.0799318E-23
   7.050000      4.4184254E-23
   7.060000      4.7642828E-23