  -2.600000      0.0000000E+00
  -2.590000      0.0000000E+00
  -2.580000      0.0000000E+00
  -2.570000      0.0000000E+00
  -2.560000      0.0000000E+00
  -2.550000      0.0000000E+00
  -2.540000      0.0000000E+00
  -2.530000      0.0000000E+00
  -2.520000      0.0000000E+00
  -2.510000      0.0000000E+00
  -2.500000      0.0000000E+00
  -2.490000      0.0000000E+00
  -2.480000      0.0000000E+00
  -2.470000      0.0000000E+00
  -2.460000      0.0000000E+00
  -2.450000      0.0000000E+00
  -2.440000      0.0000000E+00
  -2.430000      0.0000000E+00
  -2.420000      0.0000000E+00
  -2.410000      0.0000000E+00
  -2.400000      0.0000000E+00
  -2.390000      0.0000000E+00
  -2.380000      0.0000000E+00
  -2.370000      0.0000000E+00
  -2.360000      0.0000000E+00
  -2.350000      0.0000000E+00
  -2.340000      0.0000000E+00
  -2.330000      0.0000000E+00
  -2.320000      0.0000000E+00
  -2.310000      0.0000000E+00
  -2.300000      0.0000000E+00
  -2.290000      0.0000000E+00
  -2.280000      0.0000000E+00
  -2.270000      0.0000000E+00
  -2.260000      0.0000000E+00
  -2.250000      0.0000000E+00
  -2.240000      0.0000000E+00
  -2.230000      0.0000000E+00
  -2.220000      0.0000000E+00
  -2.210000      0.0000000E+00
  -2.200000      0.0000000E+00
  -2.190000      0.0000000E+00
  -2.180000      0.0000000E+00
  -2.170000      0.0000000E+00
  -2.160000      0.0000000E+00
  -2.150000      0.0000000E+00
  -2.140000      0.0000000E+00
  -2.130000      0.0000000E+00
  -2.120000      0.0000000E+00
  -2.110000      0.0000000E+00
  -2.100000      0.0000000E+00
  -2.090000      0.0000000E+00
  -2.080000      0.0000000E+00
  -2.070000      0.0000000E+00
  -2.060000      0.0000000E+00
  -2.050000      0.0000000E+00
  -2.040000      0.0000000E+00
  -2.030000      0.0000000E+00
  -2.020000      0.0000000E+00
  -2.010000      0.0000000E+00
  -2.000000      0.0000000E+00
  -1.990000      0.0000000E+00
  -1.980000      0.0000000E+00
  -1.970000      0.0000000E+00
  -1.960000      0.0000000E+00
  -1.950000      0.0000000E+00
  -1.940000      0.0000000E+00
  -1.930000      0.0000000E+00
  -1.920000      0.0000000E+00
  -1.910000      0.0000000E+00
  -1.900000      0.0000000E+00
  -1.890000      0.0000000E+00
  -1.880000      0.0000000E+00
  -1.870000      0.0000000E+00
  -1.860000      0.0000000E+00
  -1.850000      0.0000000E+00
  -1.840000      0.0000000E+00
  -1.830000      0.0000000E+00
  -1.820000      0.0000000E+00
  -1.810000      0.0000000E+00
  -1.800000      0.0000000E+00
  -1.790000      0.0000000E+00
  -1.780000      0.0000000E+00
  -1.770000      0.0000000E+00
  -1.760000      0.0000000E+00
  -1.750000      0.0000000E+00
  -1.740000      0.0000000E+00
  -1.730000      0.0000000E+00
  -1.720000      0.0000000E+00
  -1.710000      0.0000000E+00
  -1.700000      0.0000000E+00
  -1.690000      0.0000000E+00
  -1.680000      0.0000000E+00
  -1.670000      0.0000000E+00
  -1.660000      0.0000000E+00
  -1.650000      0.0000000E+00
  -1.640000      0.0000000E+00
  -1.630000      0.0000000E+00
  -1.620000      0.0000000E+00
  -1.610000      0.0000000E+00
  -1.600000      0.0000000E+00
  -1.590000      0.0000000E+00
  -1.580000      0.0000000E+00
  -1.570000      0.0000000E+00
  -1.560000      0.0000000E+00
  -1.550000      0.0000000E+00
  -1.540000      0.0000000E+00
  -1.530000      0.0000000E+00
  -1.520000      0.0000000E+00
  -1.510000      0.0000000E+00
  -1.500000      0.0000000E+00
  -1.490000      0.0000000E+00
  -1.480000      0.0000000E+00
  -1.470000      0.0000000E+00
  -1.460000      0.0000000E+00
  -1.450000      0.0000000E+00
  -1.440000      0.0000000E+00
  -1.430000      0.0000000E+00
  -1.420000      0.0000000E+00
  -1.410000      0.0000000E+00
  -1.400000      0.0000000E+00
  -1.390000      0.0000000E+00
  -1.380000      0.0000000E+00
  -1.370000      0.0000000E+00
  -1.360000      0.0000000E+00
  -1.350000      0.0000000E+00
  -1.340000      0.0000000E+00
  -1.330000      0.0000000E+00
  -1.320000      0.0000000E+00
  -1.310000      0.0000000E+00
  -1.300000      0.0000000E+00
  -1.290000      0.0000000E+00
  -1.280000      0.0000000E+00
  -1.270000      0.0000000E+00
  -1.260000      0.0000000E+00
  -1.250000      0.0000000E+00
  -1.240000      0.0000000E+00
  -1.230000      0.0000000E+00
  -1.220000      0.0000000E+00
  -1.210000      0.0000000E+00
  -1.200000      0.0000000E+00
  -1.190000      0.0000000E+00
  -1.180000      0.0000000E+00
  -1.170000      0.0000000E+00
  -1.160000      0.0000000E+00
  -1.150000      0.0000000E+00
  -1.140000      0.0000000E+00
  -1.130000      0.0000000E+00
  -1.120000      0.0000000E+00
  -1.110000      0.0000000E+00
  -1.100000      0.0000000E+00
  -1.090000      0.0000000E+00
  -1.080000      0.0000000E+00
  -1.070000      0.0000000E+00
  -1.060000      0.0000000E+00
  -1.050000      0.0000000E+00
  -1.040000      0.0000000E+00
  -1.030000      0.0000000E+00
  -1.020000      0.0000000E+00
  -1.010000      0.0000000E+00
  -1.000000      0.0000000E+00
 -0.9900000      0.0000000E+00
 -0.9800000      0.0000000E+00
 -0.9700000      0.0000000E+00
 -0.9600000      0.0000000E+00
 -0.9500000      0.0000000E+00
 -0.9400000      0.0000000E+00
 -0.9300000      0.0000000E+00
 -0.9200000      0.0000000E+00
 -0.9100000      0.0000000E+00
 -0.9000000      0.0000000E+00
 -0.8900000      0.0000000E+00
 -0.8800000      0.0000000E+00
 -0.8700000      0.0000000E+00
 -0.8600000      0.0000000E+00
 -0.8500000      0.0000000E+00
 -0.8400000      0.0000000E+00
 -0.8300000      0.0000000E+00
 -0.8200000      0.0000000E+00
 -0.8100000      0.0000000E+00
 -0.8000000      0.0000000E+00
 -0.7900000      0.0000000E+00
 -0.7800000      0.0000000E+00
 -0.7700000      0.0000000E+00
 -0.7600000      0.0000000E+00
 -0.7500000      0.0000000E+00
 -0.7400000      0.0000000E+00
 -0.7300000      0.0000000E+00
 -0.7200000      0.0000000E+00
 -0.7100000      0.0000000E+00
 -0.7000000      0.0000000E+00
 -0.6900000      0.0000000E+00
 -0.6800000      0.0000000E+00
 -0.6700000      0.0000000E+00
 -0.6600000      0.0000000E+00
 -0.6500000      0.0000000E+00
 -0.6400000      0.0000000E+00
 -0.6300000      0.0000000E+00
 -0.6200000      0.0000000E+00
 -0.6100000      0.0000000E+00
 -0.6000000      0.0000000E+00
 -0.5900000      0.0000000E+00
 -0.5800000      0.0000000E+00
 -0.5700000      0.0000000E+00
 -0.5600000      0.0000000E+00
 -0.5500000      0.0000000E+00
 -0.5400000      0.0000000E+00
 -0.5300000      0.0000000E+00
 -0.5200000      0.0000000E+00
 -0.5100000      0.0000000E+00
 -0.5000000      0.0000000E+00
 -0.4900000      0.0000000E+00
 -0.4800000      0.0000000E+00
 -0.4700000      0.0000000E+00
 -0.4600000      0.0000000E+00
 -0.4500000      0.0000000E+00
 -0.4400000      0.0000000E+00
 -0.4300000      0.0000000E+00
 -0.4200000      0.0000000E+00
 -0.4100000      0.0000000E+00
 -0.4000000      0.0000000E+00
 -0.3900000      0.0000000E+00
 -0.3800000      0.0000000E+00
 -0.3700000      0.0000000E+00
 -0.3600000      0.0000000E+00
 -0.3500000      0.0000000E+00
 -0.3400000      0.0000000E+00
 -0.3300000      0.0000000E+00
 -0.3200000      0.0000000E+00
 -0.3100000      0.0000000E+00
 -0.3000000      0.0000000E+00
 -0.2900000      0.0000000E+00
 -0.2800000      0.0000000E+00
 -0.2700000      0.0000000E+00
 -0.2600000      0.0000000E+00
 -0.2500000      0.0000000E+00
 -0.2400000      0.0000000E+00
 -0.2300000      0.0000000E+00
 -0.2200000      0.0000000E+00
 -0.2100000      0.0000000E+00
 -0.2000000      0.0000000E+00
 -0.1900000      0.0000000E+00
 -0.1800000      0.0000000E+00
 -0.1700000      0.0000000E+00
 -0.1600000      0.0000000E+00
 -0.1500000      0.0000000E+00
 -0.1400000      0.0000000E+00
 -0.1300000      0.0000000E+00
 -0.1200000      0.0000000E+00
 -0.1100000      0.0000000E+00
 -0.1000000      0.0000000E+00
 -9.0000004E-02  0.0000000E+00
 -7.9999998E-02  0.0000000E+00
 -7.0000000E-02  0.0000000E+00
 -5.9999999E-02  0.0000000E+00
 -5.0000001E-02  0.0000000E+00
 -3.9999999E-02  0.0000000E+00
 -2.9999999E-02  0.0000000E+00
 -2.0000000E-02  0.0000000E+00
 -9.9999998E-03  0.0000000E+00
 -3.4694470E-17  0.0000000E+00
  9.9999998E-03  0.0000000E+00
  2.0000000E-02  0.0000000E+00
  2.9999999E-02  0.0000000E+00
  3.9999999E-02  0.0000000E+00
  5.0000001E-02  0.0000000E+00
  5.9999999E-02  0.0000000E+00
  7.0000000E-02  0.0000000E+00
  7.9999998E-02  0.0000000E+00
  9.0000004E-02  0.0000000E+00
  0.1000000      0.0000000E+00
  0.1100000      0.0000000E+00
  0.1200000      0.0000000E+00
  0.1300000      0.0000000E+00
  0.1400000      0.0000000E+00
  0.1500000      0.0000000E+00
  0.1600000      0.0000000E+00
  0.1700000      0.0000000E+00
  0.1800000      0.0000000E+00
  0.1900000      0.0000000E+00
  0.2000000      0.0000000E+00
  0.2100000      0.0000000E+00
  0.2200000      0.0000000E+00
  0.2300000      0.0000000E+00
  0.2400000      0.0000000E+00
  0.2500000      0.0000000E+00
  0.2600000      0.0000000E+00
  0.2700000      0.0000000E+00
  0.2800000      0.0000000E+00
  0.2900000      0.0000000E+00
  0.3000000      0.0000000E+00
  0.3100000      0.0000000E+00
  0.3200000      0.0000000E+00
  0.3300000      0.0000000E+00
  0.3400000      0.0000000E+00
  0.3500000      0.0000000E+00
  0.3600000      0.0000000E+00
  0.3700000      0.0000000E+00
  0.3800000      0.0000000E+00
  0.3900000      0.0000000E+00
  0.4000000      0.0000000E+00
  0.4100000      0.0000000E+00
  0.4200000      0.0000000E+00
  0.4300000      0.0000000E+00
  0.4400000      0.0000000E+00
  0.4500000      0.0000000E+00
  0.4600000      0.0000000E+00
  0.4700000      0.0000000E+00
  0.4800000      0.0000000E+00
  0.4900000     -1.3256162E-38
  0.5000000     -1.4597264E-38
  0.5100000     -1.5580599E-38
  0.5200000     -1.6081394E-38
  0.5300000     -1.6035318E-38
  0.5400000     -1.5298313E-38
  0.5500000     -1.3803690E-38
  0.5600000      0.0000000E+00
  0.5700000      0.0000000E+00
  0.5800000      0.0000000E+00
  0.5900000      1.5027930E-38
  0.6000000      2.3619614E-38
  0.6100000      2.7079056E-38
  0.6200000      2.6522858E-38
  0.6300000      1.1806412E-38
  0.6400000     -2.3304199E-38
  0.6500000     -6.8288890E-38
  0.6600000     -1.0496456E-37
  0.6700000     -1.2541091E-37
  0.6800000     -1.2619706E-37
  0.6900000     -1.0415035E-37
  0.7000000     -6.9276379E-38
  0.7100000     -2.3547576E-38
  0.7200000      4.4984637E-38
  0.7300000      1.4127729E-37
  0.7400000      2.5206799E-37
  0.7500000      3.6429307E-37
  0.7600000      4.8199214E-37
  0.7700000      5.8601562E-37
  0.7800000      6.7566518E-37
  0.7900000      7.5351240E-37
  0.8000000      8.0354795E-37
  0.8100000      8.3861216E-37
  0.8200000      8.5946357E-37
  0.8300000      8.1068878E-37
  0.8400000      6.6270996E-37
  0.8500000      4.5535169E-37
  0.8600000      2.0518352E-37
  0.8700000     -1.2122965E-37
  0.8800000     -5.1812524E-37
  0.8900000     -8.9542936E-37
  0.9000000     -1.2341964E-36
  0.9100000     -1.5834144E-36
  0.9200000     -1.9361256E-36
  0.9300000     -2.2543539E-36
  0.9400000     -2.5333993E-36
  0.9500000     -2.8302703E-36
  0.9600000     -3.1144642E-36
  0.9700000     -3.3334520E-36
  0.9800000     -3.5275456E-36
  0.9900000     -3.6186048E-36
   1.000000     -3.5943911E-36
   1.010000     -3.5558894E-36
   1.020000     -3.5600026E-36
   1.030000     -3.6626564E-36
   1.040000     -3.6171670E-36
   1.050000     -3.3227912E-36
   1.060000     -2.5465054E-36
   1.070000     -1.0620810E-36
   1.080000      8.6647158E-37
   1.090000      3.0331263E-36
   1.100000      5.2421455E-36
   1.110000      7.1173779E-36
   1.120000      8.5102964E-36
   1.130000      9.3454075E-36
   1.140000      9.5333266E-36
   1.150000      9.4626255E-36
   1.160000      9.7282059E-36
   1.170000      1.0693055E-35
   1.180000      1.2094851E-35
   1.190000      1.3253791E-35
   1.200000      1.4363801E-35
   1.210000      1.5990309E-35
   1.220000      1.7859898E-35
   1.230000      1.9925991E-35
   1.240000      2.2000390E-35
   1.250000      2.3703782E-35
   1.260000      2.4518654E-35
   1.270000      2.4356154E-35
   1.280000      2.3152297E-35
   1.290000      2.0942679E-35
   1.300000      1.8967116E-35
   1.310000      1.6786781E-35
   1.320000      1.3621080E-35
   1.330000      1.0246720E-35
   1.340000      4.5318568E-36
   1.350000     -4.2142082E-36
   1.360000     -1.3932527E-35
   1.370000     -2.5566267E-35
   1.380000     -3.9087535E-35
   1.390000     -5.3328029E-35
   1.400000     -6.8233154E-35
   1.410000     -8.2382691E-35
   1.420000     -9.5525607E-35
   1.430000     -1.0927617E-34
   1.440000     -1.2420581E-34
   1.450000     -1.3877909E-34
   1.460000     -1.5036307E-34
   1.470000     -1.5862733E-34
   1.480000     -1.6310307E-34
   1.490000     -1.6382519E-34
   1.500000     -1.6215111E-34
   1.510000     -1.5757811E-34
   1.520000     -1.5115538E-34
   1.530000     -1.4505729E-34
   1.540000     -1.3832269E-34
   1.550000     -1.2997311E-34
   1.560000     -1.1983835E-34
   1.570000     -1.0458148E-34
   1.580000     -8.1703952E-35
   1.590000     -5.6942094E-35
   1.600000     -3.0955381E-35
   1.610000      2.9641189E-36
   1.620000      5.3964219E-35
   1.630000      1.2119719E-34
   1.640000      2.0062509E-34
   1.650000      2.8487502E-34
   1.660000      3.6832644E-34
   1.670000      4.5506972E-34
   1.680000      5.3961633E-34
   1.690000      6.0657524E-34
   1.700000      6.6047914E-34
   1.710000      7.2035694E-34
   1.720000      7.8486775E-34
   1.730000      8.4989380E-34
   1.740000      9.1682406E-34
   1.750000      9.8255707E-34
   1.760000      1.0434027E-33
   1.770000      1.0915614E-33
   1.780000      1.1204724E-33
   1.790000      1.1335414E-33
   1.800000      1.1321197E-33
   1.810000      1.1127889E-33
   1.820000      1.0735243E-33
   1.830000      1.0090472E-33
   1.840000      9.2688868E-34
   1.850000      8.2563601E-34
   1.860000      6.8939203E-34
   1.870000      5.2539473E-34
   1.880000      3.4466227E-34
   1.890000      1.4367864E-34
   1.900000     -8.3936857E-35
   1.910000     -3.3359522E-34
   1.920000     -6.0231536E-34
   1.930000     -8.9056894E-34
   1.940000     -1.1985515E-33
   1.950000     -1.5249190E-33
   1.960000     -1.8665353E-33
   1.970000     -2.2274788E-33
   1.980000     -2.6103338E-33
   1.990000     -3.0108723E-33
   2.000000     -3.4274014E-33
   2.010000     -3.8558819E-33
   2.020000     -4.2903501E-33
   2.030000     -4.7262918E-33
   2.040000     -5.1529823E-33
   2.050000     -5.5618383E-33
   2.060000     -5.9479228E-33
   2.070000     -6.3051284E-33
   2.080000     -6.6238739E-33
   2.090000     -6.8906502E-33
   2.100000     -7.0987281E-33
   2.110000     -7.2423463E-33
   2.120000     -7.3157743E-33
   2.130000     -7.3145011E-33
   2.140000     -7.2326382E-33
   2.150000     -7.0625934E-33
   2.160000     -6.7992393E-33
   2.170000     -6.4379644E-33
   2.180000     -5.9688984E-33
   2.190000     -5.3853272E-33
   2.200000     -4.6814621E-33
   2.210000     -3.8494542E-33
   2.220000     -2.8835848E-33
   2.230000     -1.7791515E-33
   2.240000     -5.3197810E-34
   2.250000      8.5954167E-34
   2.260000      2.3956327E-33
   2.270000      4.0745382E-33
   2.280000      5.8891804E-33
   2.290000      7.8358049E-33
   2.300000      9.9058578E-33
   2.310000      1.2084438E-32
   2.320000      1.4358957E-32
   2.330000      1.6713856E-32
   2.340000      1.9129588E-32
   2.350000      2.1589453E-32
   2.360000      2.4074966E-32
   2.370000      2.6564483E-32
   2.380000      2.9030723E-32
   2.390000      3.1446137E-32
   2.400000      3.3787146E-32
   2.410000      3.6023248E-32
   2.420000      3.8124561E-32
   2.430000      4.0063695E-32
   2.440000      4.1802771E-32
   2.450000      4.3302532E-32
   2.460000      4.4529469E-32
   2.470000      4.5445690E-32
   2.480000      4.6012801E-32
   2.490000      4.6192011E-32
   2.500000      4.5945108E-32
   2.510000      4.5234665E-32
   2.520000      4.4025049E-32
   2.530000      4.2282450E-32
   2.540000      3.9975709E-32
   2.550000      3.7077196E-32
   2.560000      3.3562738E-32
   2.570000      2.9412235E-32
   2.580000      2.4610256E-32
   2.590000      1.9145100E-32
   2.600000      1.3007530E-32
   2.610000      6.1994757E-33
   2.620000     -1.2721744E-33
   2.630000     -9.3999148E-33
   2.640000     -1.8167756E-32
   2.650000     -2.7553408E-32
   2.660000     -3.7527710E-32
   2.670000     -4.8054153E-32
   2.680000     -5.9088669E-32
   2.690000     -7.0579590E-32
   2.700000     -8.2465701E-32
   2.710000     -9.4677777E-32
   2.720000     -1.0713855E-31
   2.730000     -1.1976122E-31
   2.740000     -1.3245097E-31
   2.750000     -1.4510340E-31
   2.760000     -1.5760892E-31
   2.770000     -1.6985049E-31
   2.780000     -1.8170222E-31
   2.790000     -1.9303315E-31
   2.800000     -2.0370746E-31
   2.810000     -2.1358525E-31
   2.820000     -2.2252251E-31
   2.830000     -2.3037312E-31
   2.840000     -2.3698916E-31
   2.850000     -2.4222197E-31
   2.860000     -2.4592289E-31
   2.870000     -2.4794444E-31
   2.880000     -2.4814114E-31
   2.890000     -2.4637080E-31
   2.900000     -2.4249539E-31
   2.910000     -2.3638293E-31
   2.920000     -2.2790858E-31
   2.930000     -2.1695561E-31
   2.940000     -2.0341782E-31
   2.950000     -1.8720087E-31
   2.960000     -1.6822397E-31
   2.970000     -1.4642162E-31
   2.980000     -1.2174526E-31
   2.990000     -9.4164920E-32
   3.000000     -6.3670628E-32
   3.010000     -3.0273878E-32
   3.020000      5.9911883E-33
   3.030000      4.5066705E-32
   3.040000      8.6870137E-32
   3.050000      1.3129354E-31
   3.060000      1.7820285E-31
   3.070000      2.2743434E-31
   3.080000      2.7880361E-31
   3.090000      3.3209862E-31
   3.100000      3.8707313E-31
   3.110000      4.4345590E-31
   3.120000      5.0094750E-31
   3.130000      5.5922051E-31
   3.140000      6.1791986E-31
   3.150000      6.7666288E-31
   3.160000      7.3504029E-31
   3.170000      7.9261713E-31
   3.180000      8.4893384E-31
   3.190000      9.0350743E-31
   3.200000      9.5583395E-31
   3.210000      1.0053902E-30
   3.220000      1.0516359E-30
   3.230000      1.0940169E-30
   3.240000      1.1319673E-30
   3.250000      1.1649129E-30
   3.260000      1.1922742E-30
   3.270000      1.2134698E-30
   3.280000      1.2279194E-30
   3.290000      1.2350481E-30
   3.300000      1.2342887E-30
   3.310000      1.2250864E-30
   3.320000      1.2069016E-30
   3.330000      1.1792143E-30
   3.340000      1.1415276E-30
   3.350000      1.0933725E-30
   3.360000      1.0343115E-30
   3.370000      9.6394251E-31
   3.380000      8.8190457E-31
   3.390000      7.8788144E-31
   3.400000      6.8160711E-31
   3.410000      5.6287009E-31
   3.420000      4.3151810E-31
   3.430000      2.8746270E-31
   3.440000      1.3068375E-31
   3.450000     -3.8766605E-32
   3.460000     -2.2075986E-31
   3.470000     -4.1508723E-31
   3.480000     -6.2145673E-31
   3.490000     -8.3949020E-31
   3.500000     -1.0687202E-30
   3.510000     -1.3085877E-30
   3.520000     -1.5584397E-30
   3.530000     -1.8175270E-30
   3.540000     -2.0850033E-30
   3.550000     -2.3599223E-30
   3.560000     -2.6412373E-30
   3.570000     -2.9277998E-30
   3.580000     -3.2183587E-30
   3.590000     -3.5115597E-30
   3.600000     -3.8059471E-30
   3.610000     -4.0999618E-30
   3.620000     -4.3919448E-30
   3.630000     -4.6801395E-30
   3.640000     -4.9626923E-30
   3.650000     -5.2376556E-30
   3.660000     -5.5029935E-30
   3.670000     -5.7565847E-30
   3.680000     -5.9962275E-30
   3.690000     -6.2196459E-30
   3.700000     -6.4244945E-30
   3.710000     -6.6083652E-30
   3.720000     -6.7687944E-30
   3.730000     -6.9032709E-30
   3.740000     -7.0092400E-30
   3.750000     -7.0841173E-30
   3.760000     -7.1252915E-30
   3.770000     -7.1301387E-30
   3.780000     -7.0960302E-30
   3.790000     -7.0203434E-30
   3.800000     -6.9004731E-30
   3.810000     -6.7338448E-30
   3.820000     -6.5179262E-30
   3.830000     -6.2502423E-30
   3.840000     -5.9283889E-30
   3.850000     -5.5500497E-30
   3.860000     -5.1130088E-30
   3.870000     -4.6151676E-30
   3.880000     -4.0545603E-30
   3.890000     -3.4293733E-30
   3.900000     -2.7379607E-30
   3.910000     -1.9788584E-30
   3.920000     -1.1508031E-30
   3.930000     -2.5275299E-31
   3.940000      7.1609950E-31
   3.950000      1.7563091E-30
   3.960000      2.8681579E-30
   3.970000      4.0516390E-30
   3.980000      5.3064373E-30
   3.990000      6.6319089E-30
   4.000000      8.0270669E-30
   4.010000      9.4905577E-30
   4.020000      1.1020647E-29
   4.030000      1.2615194E-29
   4.040000      1.4271643E-29
   4.050000      1.5987005E-29
   4.060000      1.7757825E-29
   4.070000      1.9580186E-29
   4.080000      2.1449681E-29
   4.090000      2.3361395E-29
   4.100000      2.5309903E-29
   4.110000      2.7289248E-29
   4.120000      2.9292931E-29
   4.130000      3.1313894E-29
   4.140000      3.3344519E-29
   4.150000      3.5376613E-29
   4.160000      3.7401382E-29
   4.170000      3.9409459E-29
   4.180000      4.1390868E-29
   4.190000      4.3335034E-29
   4.200000      4.5230778E-29
   4.210000      4.7066306E-29
   4.220000      4.8829221E-29
   4.230000      5.0506526E-29
   4.240000      5.2084621E-29
   4.250000      5.3549327E-29
   4.260000      5.4885868E-29
   4.270000      5.6078909E-29
   4.280000      5.7112568E-29
   4.290000      5.7970437E-29
   4.300000      5.8635581E-29
   4.310000      5.9090594E-29
   4.320000      5.9317625E-29
   4.330000      5.9298384E-29
   4.340000      5.9014195E-29
   4.350000      5.8446046E-29
   4.360000      5.7574592E-29
   4.370000      5.6380239E-29
   4.380000      5.4843184E-29
   4.390000      5.2943453E-29
   4.400000      5.0660991E-29
   4.410000      4.7975679E-29
   4.420000      4.4867454E-29
   4.430000      4.1316361E-29
   4.440000      3.7302636E-29
   4.450000      3.2806793E-29
   4.460000      2.7809730E-29
   4.470000      2.2292820E-29
   4.480000      1.6238006E-29
   4.490000      9.6279224E-30
   4.500000      2.4460121E-30
   4.510000     -5.3233494E-30
   4.520000     -1.3694745E-29
   4.530000     -2.2681557E-29
   4.540000     -3.2295811E-29
   4.550000     -4.2548051E-29
   4.560000     -5.3447168E-29
   4.570000     -6.5000244E-29
   4.580000     -7.7212361E-29
   4.590000     -9.0086426E-29
   4.600000     -1.0362301E-28
   4.610000     -1.1782014E-28
   4.620000     -1.3267308E-28
   4.630000     -1.4817416E-28
   4.640000     -1.6431259E-28
   4.650000     -1.8107416E-28
   4.660000     -1.9844112E-28
   4.670000     -2.1639190E-28
   4.680000     -2.3490091E-28
   4.690000     -2.5393827E-28
   4.700000     -2.7346968E-28
   4.710000     -2.9345606E-28
   4.720000     -3.1385340E-28
   4.730000     -3.3461254E-28
   4.740000     -3.5567894E-28
   4.750000     -3.7699236E-28
   4.760000     -3.9848675E-28
   4.770000     -4.2009000E-28
   4.780000     -4.4172373E-28
   4.790000     -4.6330306E-28
   4.800000     -4.8473649E-28
   4.810000     -5.0592547E-28
   4.820000     -5.2676466E-28
   4.830000     -5.4714148E-28
   4.840000     -5.6693595E-28
   4.850000     -5.8602081E-28
   4.860000     -6.0426105E-28
   4.870000     -6.2151425E-28
   4.880000     -6.3763034E-28
   4.890000     -6.5245172E-28
   4.900000     -6.6581300E-28
   4.910000     -6.7754119E-28
   4.920000     -6.8745607E-28
   4.930000     -6.9536986E-28
   4.940000     -7.0108771E-28
   4.950000     -7.0440772E-28
   4.960000     -7.0512118E-28
   4.970000     -7.0301330E-28
   4.980000     -6.9786303E-28
   4.990000     -6.8944387E-28
   5.000000     -6.7752391E-28
   5.010000     -6.6186691E-28
   5.020000     -6.4223259E-28
   5.030000     -6.1837744E-28
   5.040000     -5.9005534E-28
   5.050000     -5.5701823E-28
   5.060000     -5.1901737E-28
   5.070000     -4.7580412E-28
   5.080000     -4.2713087E-28
   5.090000     -3.7275219E-28
   5.100000     -3.1242614E-28
   5.110000     -2.4591552E-28
   5.120000     -1.7298929E-28
   5.130000     -9.3423955E-29
   5.140000     -7.0048585E-30
   5.150000      8.6471769E-29
   5.160000      1.8719731E-28
   5.170000      2.9534911E-28
   5.180000      4.1108840E-28
   5.190000      5.3455832E-28
   5.200000      6.6588214E-28
   5.210000      8.0516097E-28
   5.220000      9.5247193E-28
   5.230000      1.1078650E-27
   5.240000      1.2713616E-27
   5.250000      1.4429519E-27
   5.260000      1.6225923E-27
   5.270000      1.8102031E-27
   5.280000      2.0056656E-27
   5.290000      2.2088204E-27
   5.300000      2.4194636E-27
   5.310000      2.6373454E-27
   5.320000      2.8621669E-27
   5.330000      3.0935774E-27
   5.340000      3.3311712E-27
   5.350000      3.5744878E-27
   5.360000      3.8230056E-27
   5.370000      4.0761417E-27
   5.380000      4.3332495E-27
   5.390000      4.5936152E-27
   5.400000      4.8564577E-27
   5.410000      5.1209241E-27
   5.420000      5.3860880E-27
   5.430000      5.6509496E-27
   5.440000      5.9144338E-27
   5.450000      6.1753873E-27
   5.460000      6.4325775E-27
   5.470000      6.6846925E-27
   5.480000      6.9303403E-27
   5.490000      7.1680462E-27
   5.500000      7.3962566E-27
   5.510000      7.6133374E-27
   5.520000      7.8175715E-27
   5.530000      8.0071647E-27
   5.540000      8.1802418E-27
   5.550000      8.3348532E-27
   5.560000      8.4689749E-27
   5.570000      8.5805117E-27
   5.580000      8.6672987E-27
   5.590000      8.7271073E-27
   5.600000      8.7576449E-27
   5.610000      8.7565640E-27
   5.620000      8.7214667E-27
   5.630000      8.6499076E-27
   5.640000      8.5394047E-27
   5.650000      8.3874419E-27
   5.660000      8.1914793E-27
   5.670000      7.9489608E-27
   5.680000      7.6573241E-27
   5.690000      7.3140071E-27
   5.700000      6.9164636E-27
   5.710000      6.4621694E-27
   5.720000      5.9486333E-27
   5.730000      5.3734135E-27
   5.740000      4.7341292E-27
   5.750000      4.0284734E-27
   5.760000      3.2542288E-27
   5.770000      2.4092787E-27
   5.780000      1.4916247E-27
   5.790000      4.9940466E-28
   5.800000     -5.6909333E-28
   5.810000     -1.7154112E-27
   5.820000     -2.9409047E-27
   5.830000     -4.2467244E-27
   5.840000     -5.6337977E-27
   5.850000     -7.1028073E-27
   5.860000     -8.6541731E-27
   5.870000     -1.0288030E-26
   5.880000     -1.2004212E-26
   5.890000     -1.3802229E-26
   5.900000     -1.5681253E-26
   5.910000     -1.7640082E-26
   5.920000     -1.9677135E-26
   5.930000     -2.1790427E-26
   5.940000     -2.3977541E-26
   5.950000     -2.6235616E-26
   5.960000     -2.8561328E-26
   5.970000     -3.0950871E-26
   5.980000     -3.3399933E-26
   5.990000     -3.5903676E-26
   6.000000     -3.8456729E-26
   6.010000     -4.1053163E-26
   6.020000     -4.3686476E-26
   6.030000     -4.6349587E-26
   6.040000     -4.9034814E-26
   6.050000     -5.1733856E-26
   6.060000     -5.4437793E-26
   6.070000     -5.7137078E-26
   6.080000     -5.9821547E-26
   6.090000     -6.2480360E-26
   6.100000     -6.5102065E-26
   6.110000     -6.7674540E-26
   6.120000     -7.0185060E-26
   6.130000     -7.2620230E-26
   6.140000     -7.4966025E-26
   6.150000     -7.7207814E-26
   6.160000     -7.9330342E-26
   6.170000     -8.1317760E-26
   6.180000     -8.3153643E-26
   6.190000     -8.4821024E-26
   6.200000     -8.6302394E-26
   6.210000     -8.7579744E-26
   6.220000     -8.8634593E-26
   6.230000     -8.9448044E-26
   6.240000     -9.0000789E-26
   6.250000     -9.0273181E-26
   6.260000     -9.0245262E-26
   6.270000     -8.9896826E-26
   6.280000     -8.9207479E-26
   6.290000     -8.8156691E-26
   6.300000     -8.6723861E-26
   6.310000     -8.4888385E-26
   6.320000     -8.2629741E-26
   6.330000     -7.9927553E-26
   6.340000     -7.6761657E-26
   6.350000     -7.3112220E-26
   6.360000     -6.8959811E-26
   6.370000     -6.4285489E-26
   6.380000     -5.9070903E-26
   6.390000     -5.3298432E-26
   6.400000     -4.6951232E-26
   6.410000     -4.0013398E-26
   6.420000     -3.2470026E-26
   6.430000     -2.4307368E-26
   6.440000     -1.5512931E-26
   6.450000     -6.0756168E-27
   6.460000      4.0141653E-27
   6.470000      1.4764370E-26
   6.480000      2.6181187E-26
   6.490000      3.8268912E-26
   6.500000      5.1029810E-26
   6.510000      6.4463975E-26
   6.520000      7.8569215E-26
   6.530000      9.3340937E-26
   6.540000      1.0877197E-25
   6.550000      1.2485242E-25
   6.560000      1.4156957E-25
   6.570000      1.5890777E-25
   6.580000      1.7684827E-25
   6.590000      1.9536911E-25
   6.600000      2.1444498E-25
   6.610000      2.3404714E-25
   6.620000      2.5414325E-25
   6.630000      2.7469739E-25
   6.640000      2.9566978E-25
   6.650000      3.1701675E-25
   6.660000      3.3869072E-25
   6.670000      3.6064011E-25
   6.680000      3.8280922E-25
   6.690000      4.0513825E-25
   6.700000      4.2756310E-25
   6.710000      4.5001547E-25
   6.720000      4.7242271E-25
   6.730000      4.9470808E-25
   6.740000      5.1679032E-25
   6.750000      5.3858399E-25
   6.760000      5.5999939E-25
   6.770000      5.8094281E-25
   6.780000      6.0131608E-25
   6.790000      6.2101719E-25
   6.800000      6.3994024E-25
   6.810000      6.5797527E-25
   6.820000      6.7500870E-25
   6.830000      6.9092343E-25
   6.840000      7.0559895E-25
   6.850000      7.1891157E-25
   6.860000      7.3073472E-25
   6.870000      7.4093908E-25
   6.880000      7.4939291E-25
   6.890000      7.5596225E-25
   6.900000      7.6051132E-25
   6.910000      7.6290285E-25
   6.920000      7.6299830E-25
   6.930000      7.6065849E-25
   6.940000      7.5574374E-25
   6.950000      7.4811456E-25
   6.960000      7.3763193E-25
   6.970000      7.2415779E-25
   6.980000      7.0755562E-25
   6.990000      6.8769092E-25
   7.000000      6.6443166E-25
   7.010000      6.3764899E-25
   7.020000      6.0721779E-25
   7.030000      5.7301722E-25
   7.040000      5.3493156E-25
   7.050000      4.9285056E-25
   7.060000      4.4667045E-25