  -2.600000      0.0000000E+00
  -2.590000      0.0000000E+00
  -2.580000      0.0000000E+00
  -2.570000      0.0000000E+00
  -2.560000      0.0000000E+00
  -2.550000      0.0000000E+00
  -2.540000      0.0000000E+00
  -2.530000      0.0000000E+00
  -2.520000      0.0000000E+00
  -2.510000      0.0000000E+00
  -2.500000      0.0000000E+00
  -2.490000      0.0000000E+00
  -2.480000      0.0000000E+00
  -2.470000      0.0000000E+00
  -2.460000      0.0000000E+00
  -2.450000      0.0000000E+00
  -2.440000      0.0000000E+00
  -2.430000      0.0000000E+00
  -2.420000      0.0000000E+00
  -2.410000      0.0000000E+00
  -2.400000      0.0000000E+00
  -2.390000      0.0000000E+00
  -2.380000      0.0000000E+00
  -2.370000      0.0000000E+00
  -2.360000      0.0000000E+00
  -2.350000      0.0000000E+00
  -2.340000      0.0000000E+00
  -2.330000      0.0000000E+00
  -2.320000      0.0000000E+00
  -2.310000      0.0000000E+00
  -2.300000      0.0000000E+00
  -2.290000      0.0000000E+00
  -2.280000      0.0000000E+00
  -2.270000      0.0000000E+00
  -2.260000      0.0000000E+00
  -2.250000      0.0000000E+00
  -2.240000      0.0000000E+00
  -2.230000      0.0000000E+00
  -2.220000      0.0000000E+00
  -2.210000      0.0000000E+00
  -2.200000      0.0000000E+00
  -2.190000      0.0000000E+00
  -2.180000      0.0000000E+00
  -2.170000      0.0000000E+00
  -2.160000      0.0000000E+00
  -2.150000      0.0000000E+00
  -2.140000      0.0000000E+00
  -2.130000      0.0000000E+00
  -2.120000      0.0000000E+00
  -2.110000      0.0000000E+00
  -2.100000      0.0000000E+00
  -2.090000      0.0000000E+00
  -2.080000      0.0000000E+00
  -2.070000      0.0000000E+00
  -2.060000      0.0000000E+00
  -2.050000      0.0000000E+00
  -2.040000      0.0000000E+00
  -2.030000      0.0000000E+00
  -2.020000      0.0000000E+00
  -2.010000      0.0000000E+00
  -2.000000      0.0000000E+00
  -1.990000      0.0000000E+00
  -1.980000      0.0000000E+00
  -1.970000      0.0000000E+00
  -1.960000      0.0000000E+00
  -1.950000      0.0000000E+00
  -1.940000      0.0000000E+00
  -1.930000      0.0000000E+00
  -1.920000      0.0000000E+00
  -1.910000      0.0000000E+00
  -1.900000      0.0000000E+00
  -1.890000      0.0000000E+00
  -1.880000      0.0000000E+00
  -1.870000      0.0000000E+00
  -1.860000      0.0000000E+00
  -1.850000      0.0000000E+00
  -1.840000      0.0000000E+00
  -1.830000      0.0000000E+00
  -1.820000      0.0000000E+00
  -1.810000      0.0000000E+00
  -1.800000      0.0000000E+00
  -1.790000      0.0000000E+00
  -1.780000      0.0000000E+00
  -1.770000      0.0000000E+00
  -1.760000      0.0000000E+00
  -1.750000      0.0000000E+00
  -1.740000      0.0000000E+00
  -1.730000      0.0000000E+00
  -1.720000      0.0000000E+00
  -1.710000      0.0000000E+00
  -1.700000      0.0000000E+00
  -1.690000      0.0000000E+00
  -1.680000      0.0000000E+00
  -1.670000      0.0000000E+00
  -1.660000      0.0000000E+00
  -1.650000      0.0000000E+00
  -1.640000      0.0000000E+00
  -1.630000      0.0000000E+00
  -1.620000      0.0000000E+00
  -1.610000      0.0000000E+00
  -1.600000      0.0000000E+00
  -1.590000      0.0000000E+00
  -1.580000      0.0000000E+00
  -1.570000      0.0000000E+00
  -1.560000      0.0000000E+00
  -1.550000      0.0000000E+00
  -1.540000      0.0000000E+00
  -1.530000      0.0000000E+00
  -1.520000      0.0000000E+00
  -1.510000      0.0000000E+00
  -1.500000      0.0000000E+00
  -1.490000      0.0000000E+00
  -1.480000      0.0000000E+00
  -1.470000      0.0000000E+00
  -1.460000      0.0000000E+00
  -1.450000      0.0000000E+00
  -1.440000      0.0000000E+00
  -1.430000      0.0000000E+00
  -1.420000      0.0000000E+00
  -1.410000      0.0000000E+00
  -1.400000      0.0000000E+00
  -1.390000      0.0000000E+00
  -1.380000      0.0000000E+00
  -1.370000      0.0000000E+00
  -1.360000      0.0000000E+00
  -1.350000      0.0000000E+00
  -1.340000      0.0000000E+00
  -1.330000      0.0000000E+00
  -1.320000      0.0000000E+00
  -1.310000      0.0000000E+00
  -1.300000      0.0000000E+00
  -1.290000      0.0000000E+00
  -1.280000      0.0000000E+00
  -1.270000      0.0000000E+00
  -1.260000      0.0000000E+00
  -1.250000      0.0000000E+00
  -1.240000      0.0000000E+00
  -1.230000      0.0000000E+00
  -1.220000      0.0000000E+00
  -1.210000      0.0000000E+00
  -1.200000      0.0000000E+00
  -1.190000      0.0000000E+00
  -1.180000      0.0000000E+00
  -1.170000      0.0000000E+00
  -1.160000      0.0000000E+00
  -1.150000      0.0000000E+00
  -1.140000      0.0000000E+00
  -1.130000      0.0000000E+00
  -1.120000      0.0000000E+00
  -1.110000      0.0000000E+00
  -1.100000      0.0000000E+00
  -1.090000      0.0000000E+00
  -1.080000      0.0000000E+00
  -1.070000      0.0000000E+00
  -1.060000      0.0000000E+00
  -1.050000      0.0000000E+00
  -1.040000      0.0000000E+00
  -1.030000      0.0000000E+00
  -1.020000      0.0000000E+00
  -1.010000      0.0000000E+00
  -1.000000      0.0000000E+00
 -0.9900000      0.0000000E+00
 -0.9800000      0.0000000E+00
 -0.9700000      0.0000000E+00
 -0.9600000      0.0000000E+00
 -0.9500000      0.0000000E+00
 -0.9400000      0.0000000E+00
 -0.9300000      0.0000000E+00
 -0.9200000      0.0000000E+00
 -0.9100000      0.0000000E+00
 -0.9000000      0.0000000E+00
 -0.8900000      0.0000000E+00
 -0.8800000      0.0000000E+00
 -0.8700000      0.0000000E+00
 -0.8600000      0.0000000E+00
 -0.8500000      0.0000000E+00
 -0.8400000      0.0000000E+00
 -0.8300000      0.0000000E+00
 -0.8200000      0.0000000E+00
 -0.8100000      0.0000000E+00
 -0.8000000      0.0000000E+00
 -0.7900000      0.0000000E+00
 -0.7800000      0.0000000E+00
 -0.7700000      0.0000000E+00
 -0.7600000      0.0000000E+00
 -0.7500000      0.0000000E+00
 -0.7400000      0.0000000E+00
 -0.7300000      0.0000000E+00
 -0.7200000      0.0000000E+00
 -0.7100000      0.0000000E+00
 -0.7000000      0.0000000E+00
 -0.6900000      0.0000000E+00
 -0.6800000      0.0000000E+00
 -0.6700000      0.0000000E+00
 -0.6600000      0.0000000E+00
 -0.6500000      0.0000000E+00
 -0.6400000      0.0000000E+00
 -0.6300000      0.0000000E+00
 -0.6200000      0.0000000E+00
 -0.6100000      0.0000000E+00
 -0.6000000      0.0000000E+00
 -0.5900000      0.0000000E+00
 -0.5800000      0.0000000E+00
 -0.5700000      0.0000000E+00
 -0.5600000      0.0000000E+00
 -0.5500000      0.0000000E+00
 -0.5400000      0.0000000E+00
 -0.5300000      0.0000000E+00
 -0.5200000      0.0000000E+00
 -0.5100000      0.0000000E+00
 -0.5000000      0.0000000E+00
 -0.4900000      0.0000000E+00
 -0.4800000      0.0000000E+00
 -0.4700000      0.0000000E+00
 -0.4600000      0.0000000E+00
 -0.4500000      0.0000000E+00
 -0.4400000      0.0000000E+00
 -0.4300000      0.0000000E+00
 -0.4200000      0.0000000E+00
 -0.4100000      0.0000000E+00
 -0.4000000      0.0000000E+00
 -0.3900000      0.0000000E+00
 -0.3800000      0.0000000E+00
 -0.3700000      0.0000000E+00
 -0.3600000      0.0000000E+00
 -0.3500000      0.0000000E+00
 -0.3400000      0.0000000E+00
 -0.3300000      0.0000000E+00
 -0.3200000      0.0000000E+00
 -0.3100000      0.0000000E+00
 -0.3000000      0.0000000E+00
 -0.2900000      0.0000000E+00
 -0.2800000      0.0000000E+00
 -0.2700000      0.0000000E+00
 -0.2600000      0.0000000E+00
 -0.2500000      0.0000000E+00
 -0.2400000      0.0000000E+00
 -0.2300000      0.0000000E+00
 -0.2200000      0.0000000E+00
 -0.2100000      0.0000000E+00
 -0.2000000      0.0000000E+00
 -0.1900000      0.0000000E+00
 -0.1800000      0.0000000E+00
 -0.1700000      0.0000000E+00
 -0.1600000      0.0000000E+00
 -0.1500000      0.0000000E+00
 -0.1400000      0.0000000E+00
 -0.1300000      0.0000000E+00
 -0.1200000      0.0000000E+00
 -0.1100000      0.0000000E+00
 -0.1000000      0.0000000E+00
 -9.0000004E-02  0.0000000E+00
 -7.9999998E-02  0.0000000E+00
 -7.0000000E-02  0.0000000E+00
 -5.9999999E-02  0.0000000E+00
 -5.0000001E-02  0.0000000E+00
 -3.9999999E-02  0.0000000E+00
 -2.9999999E-02  0.0000000E+00
 -2.0000000E-02  0.0000000E+00
 -9.9999998E-03  0.0000000E+00
 -3.4694470E-17  0.0000000E+00
  9.9999998E-03  0.0000000E+00
  2.0000000E-02  0.0000000E+00
  2.9999999E-02  0.0000000E+00
  3.9999999E-02  0.0000000E+00
  5.0000001E-02  0.0000000E+00
  5.9999999E-02  0.0000000E+00
  7.0000000E-02  0.0000000E+00
  7.9999998E-02  0.0000000E+00
  9.0000004E-02  0.0000000E+00
  0.1000000      0.0000000E+00
  0.1100000      0.0000000E+00
  0.1200000      0.0000000E+00
  0.1300000      0.0000000E+00
  0.1400000      0.0000000E+00
  0.1500000      0.0000000E+00
  0.1600000      0.0000000E+00
  0.1700000      0.0000000E+00
  0.1800000      0.0000000E+00
  0.1900000      0.0000000E+00
  0.2000000      0.0000000E+00
  0.2100000      0.0000000E+00
  0.2200000      0.0000000E+00
  0.2300000      0.0000000E+00
  0.2400000      0.0000000E+00
  0.2500000      0.0000000E+00
  0.2600000      0.0000000E+00
  0.2700000      0.0000000E+00
  0.2800000      0.0000000E+00
  0.2900000      0.0000000E+00
  0.3000000      0.0000000E+00
  0.3100000      0.0000000E+00
  0.3200000      0.0000000E+00
  0.3300000      0.0000000E+00
  0.3400000      0.0000000E+00
  0.3500000      0.0000000E+00
  0.3600000      0.0000000E+00
  0.3700000      0.0000000E+00
  0.3800000      0.0000000E+00
  0.3900000      1.3620402E-38
  0.4000000      1.6820095E-38
  0.4100000      2.0281556E-38
  0.4200000      2.3934301E-38
  0.4300000      2.4460127E-38
  0.4400000      2.0840832E-38
  0.4500000      1.5508684E-38
  0.4600000      0.0000000E+00
  0.4700000      0.0000000E+00
  0.4800000      1.8382420E-38
  0.4900000      4.7436352E-38
  0.5000000      6.3740527E-38
  0.5100000      6.4905101E-38
  0.5200000      6.1613872E-38
  0.5300000      5.4531468E-38
  0.5400000      4.8308475E-38
  0.5500000      4.4137222E-38
  0.5600000      3.1093232E-38
  0.5700000      0.0000000E+00
  0.5800000     -2.8271424E-38
  0.5900000     -5.6709899E-38
  0.6000000     -8.2973147E-38
  0.6100000     -1.1713578E-37
  0.6200000     -2.4073151E-37
  0.6300000     -4.6581587E-37
  0.6400000     -7.2518110E-37
  0.6500000     -1.0069750E-36
  0.6600000     -1.3247822E-36
  0.6700000     -1.7121735E-36
  0.6800000     -2.1029356E-36
  0.6900000     -2.4380868E-36
  0.7000000     -2.7569109E-36
  0.7100000     -3.1084672E-36
  0.7200000     -3.5060407E-36
  0.7300000     -3.8530702E-36
  0.7400000     -4.1044863E-36
  0.7500000     -4.2963443E-36
  0.7600000     -4.4178786E-36
  0.7700000     -4.4779626E-36
  0.7800000     -4.4483396E-36
  0.7900000     -4.4070918E-36
  0.8000000     -4.4866576E-36
  0.8100000     -4.7222020E-36
  0.8200000     -5.0417942E-36
  0.8300000     -5.4210192E-36
  0.8400000     -5.9322326E-36
  0.8500000     -6.6700422E-36
  0.8600000     -7.2129959E-36
  0.8700000     -7.3443723E-36
  0.8800000     -7.2470956E-36
  0.8900000     -6.5980726E-36
  0.9000000     -5.4314691E-36
  0.9100000     -4.0233525E-36
  0.9200000     -2.4889839E-36
  0.9300000     -7.5736240E-37
  0.9400000      1.1264558E-36
  0.9500000      2.6238420E-36
  0.9600000      3.2457455E-36
  0.9700000      3.8382717E-36
  0.9800000      5.4470112E-36
  0.9900000      7.5633526E-36
   1.000000      1.0260261E-35
   1.010000      1.4139161E-35
   1.020000      1.9545769E-35
   1.030000      2.6656679E-35
   1.040000      3.4855193E-35
   1.050000      4.3502199E-35
   1.060000      5.2405375E-35
   1.070000      6.0688472E-35
   1.080000      6.8258018E-35
   1.090000      7.5718137E-35
   1.100000      8.0497664E-35
   1.110000      8.1475792E-35
   1.120000      7.9915186E-35
   1.130000      7.6978929E-35
   1.140000      7.4887485E-35
   1.150000      7.3240771E-35
   1.160000      7.1515750E-35
   1.170000      7.0603583E-35
   1.180000      6.9624674E-35
   1.190000      6.9032323E-35
   1.200000      6.9642788E-35
   1.210000      7.0829332E-35
   1.220000      7.1494760E-35
   1.230000      7.1278029E-35
   1.240000      6.9165743E-35
   1.250000      6.3774908E-35
   1.260000      5.5387153E-35
   1.270000      4.3794930E-35
   1.280000      2.8521000E-35
   1.290000      1.1152817E-35
   1.300000     -6.9464305E-36
   1.310000     -2.5365791E-35
   1.320000     -4.3436895E-35
   1.330000     -6.3012667E-35
   1.340000     -8.4494505E-35
   1.350000     -1.0537193E-34
   1.360000     -1.2310413E-34
   1.370000     -1.3684507E-34
   1.380000     -1.4451231E-34
   1.390000     -1.4764858E-34
   1.400000     -1.5012257E-34
   1.410000     -1.5401651E-34
   1.420000     -1.5888615E-34
   1.430000     -1.6753357E-34
   1.440000     -1.8236668E-34
   1.450000     -1.8885529E-34
   1.460000     -1.8339293E-34
   1.470000     -1.7418375E-34
   1.480000     -1.6363407E-34
   1.490000     -1.5028241E-34
   1.500000     -1.3134680E-34
   1.510000     -1.1564143E-34
   1.520000     -9.9703032E-35
   1.530000     -7.7208794E-35
   1.540000     -4.9542042E-35
   1.550000     -1.4480073E-35
   1.560000      2.7569639E-35
   1.570000      8.1573430E-35
   1.580000      1.4736408E-34
   1.590000      2.2206535E-34
   1.600000      3.0368929E-34
   1.610000      3.8444290E-34
   1.620000      4.6381811E-34
   1.630000      5.4238747E-34
   1.640000      6.1762273E-34
   1.650000      6.8907796E-34
   1.660000      7.4633895E-34
   1.670000      7.9420191E-34
   1.680000      8.4177876E-34
   1.690000      8.7915057E-34
   1.700000      9.0585927E-34
   1.710000      9.2395408E-34
   1.720000      9.3265917E-34
   1.730000      9.3133674E-34
   1.740000      9.1585529E-34
   1.750000      8.8339319E-34
   1.760000      8.3487650E-34
   1.770000      7.6080102E-34
   1.780000      6.5597815E-34
   1.790000      5.3065126E-34
   1.800000      3.8175254E-34
   1.810000      1.9353190E-34
   1.820000     -4.2191841E-35
   1.830000     -3.2262117E-34
   1.840000     -6.5199713E-34
   1.850000     -1.0361169E-33
   1.860000     -1.4739793E-33
   1.870000     -1.9594984E-33
   1.880000     -2.4852445E-33
   1.890000     -3.0489829E-33
   1.900000     -3.6469991E-33
   1.910000     -4.2762391E-33
   1.920000     -4.9357737E-33
   1.930000     -5.6225849E-33
   1.940000     -6.3333204E-33
   1.950000     -7.0674100E-33
   1.960000     -7.8203251E-33
   1.970000     -8.5908323E-33
   1.980000     -9.3794046E-33
   1.990000     -1.0178168E-32
   2.000000     -1.0979625E-32
   2.010000     -1.1774155E-32
   2.020000     -1.2549049E-32
   2.030000     -1.3291244E-32
   2.040000     -1.3983196E-32
   2.050000     -1.4605031E-32
   2.060000     -1.5138196E-32
   2.070000     -1.5562731E-32
   2.080000     -1.5858421E-32
   2.090000     -1.6005477E-32
   2.100000     -1.5985182E-32
   2.110000     -1.5778883E-32
   2.120000     -1.5369308E-32
   2.130000     -1.4741221E-32
   2.140000     -1.3877340E-32
   2.150000     -1.2761678E-32
   2.160000     -1.1380000E-32
   2.170000     -9.7137857E-33
   2.180000     -7.7492401E-33
   2.190000     -5.4719045E-33
   2.200000     -2.8638260E-33
   2.210000      9.2108139E-35
   2.220000      3.4069353E-33
   2.230000      7.0974880E-33
   2.240000      1.1178895E-32
   2.250000      1.5651815E-32
   2.260000      2.0517087E-32
   2.270000      2.5769945E-32
   2.280000      3.1399896E-32
   2.290000      3.7390324E-32
   2.300000      4.3718566E-32
   2.310000      5.0355898E-32
   2.320000      5.7268227E-32
   2.330000      6.4414557E-32
   2.340000      7.1748208E-32
   2.350000      7.9218704E-32
   2.360000      8.6769451E-32
   2.370000      9.4338165E-32
   2.380000      1.0185639E-31
   2.390000      1.0924930E-31
   2.400000      1.1643537E-31
   2.410000      1.2332547E-31
   2.420000      1.2982267E-31
   2.430000      1.3582173E-31
   2.440000      1.4120929E-31
   2.450000      1.4586388E-31
   2.460000      1.4965634E-31
   2.470000      1.5245043E-31
   2.480000      1.5410398E-31
   2.490000      1.5447047E-31
   2.500000      1.5340005E-31
   2.510000      1.5074058E-31
   2.520000      1.4633997E-31
   2.530000      1.4004733E-31
   2.540000      1.3171447E-31
   2.550000      1.2119749E-31
   2.560000      1.0835695E-31
   2.570000      9.3061243E-32
   2.580000      7.5186770E-32
   2.590000      5.4618358E-32
   2.600000      3.1251925E-32
   2.610000      4.9961327E-33
   2.620000     -2.4225815E-32
   2.630000     -5.6473723E-32
   2.640000     -9.1788024E-32
   2.650000     -1.3018719E-31
   2.660000     -1.7166455E-31
   2.670000     -2.1618557E-31
   2.680000     -2.6368461E-31
   2.690000     -3.1406207E-31
   2.700000     -3.6718160E-31
   2.710000     -4.2286745E-31
   2.720000     -4.8090273E-31
   2.730000     -5.4102715E-31
   2.740000     -6.0293494E-31
   2.750000     -6.6627396E-31
   2.760000     -7.3064483E-31
   2.770000     -7.9559959E-31
   2.780000     -8.6064139E-31
   2.790000     -9.2522380E-31
   2.800000     -9.8875062E-31
   2.810000     -1.0505751E-30
   2.820000     -1.1100005E-30
   2.830000     -1.1662803E-30
   2.840000     -1.2186183E-30
   2.850000     -1.2661704E-30
   2.860000     -1.3080460E-30
   2.870000     -1.3433099E-30
   2.880000     -1.3709853E-30
   2.890000     -1.3900582E-30
   2.900000     -1.3994820E-30
   2.910000     -1.3981827E-30
   2.920000     -1.3850656E-30
   2.930000     -1.3590230E-30
   2.940000     -1.3189415E-30
   2.950000     -1.2637115E-30
   2.960000     -1.1922359E-30
   2.970000     -1.1034406E-30
   2.980000     -9.9628469E-31
   2.990000     -8.6977159E-31
   3.000000     -7.2296025E-31
   3.010000     -5.5497745E-31
   3.020000     -3.6502979E-31
   3.030000     -1.5241682E-31
   3.040000      8.3454680E-32
   3.050000      3.4305996E-31
   3.060000      6.2673893E-31
   3.070000      9.3467947E-31
   3.080000      1.2669050E-30
   3.090000      1.6232584E-30
   3.100000      2.0033851E-30
   3.110000      2.4067175E-30
   3.120000      2.8324595E-30
   3.130000      3.2795713E-30
   3.140000      3.7467541E-30
   3.150000      4.2324372E-30
   3.160000      4.7347641E-30
   3.170000      5.2515814E-30
   3.180000      5.7804263E-30
   3.190000      6.3185187E-30
   3.200000      6.8627542E-30
   3.210000      7.4096950E-30
   3.220000      7.9555660E-30
   3.230000      8.4962520E-30
   3.240000      9.0272978E-30
   3.250000      9.5439060E-30
   3.260000      1.0040940E-29
   3.270000      1.0512934E-29
   3.280000      1.0954096E-29
   3.290000      1.1358325E-29
   3.300000      1.1719218E-29
   3.310000      1.2030099E-29
   3.320000      1.2284031E-29
   3.330000      1.2473850E-29
   3.340000      1.2592191E-29
   3.350000      1.2631520E-29
   3.360000      1.2584179E-29
   3.370000      1.2442425E-29
   3.380000      1.2198472E-29
   3.390000      1.1844551E-29
   3.400000      1.1372962E-29
   3.410000      1.0776128E-29
   3.420000      1.0046663E-29
   3.430000      9.1774331E-30
   3.440000      8.1616277E-30
   3.450000      6.9928350E-30
   3.460000      5.6651165E-30
   3.470000      4.1730847E-30
   3.480000      2.5119904E-30
   3.490000      6.7780688E-31
   3.500000     -1.3326874E-30
   3.510000     -3.5218138E-30
   3.520000     -5.8909029E-30
   3.530000     -8.4401999E-30
   3.540000     -1.1168763E-29
   3.550000     -1.4074379E-29
   3.560000     -1.7153468E-29
   3.570000     -2.0400977E-29
   3.580000     -2.3810303E-29
   3.590000     -2.7373194E-29
   3.600000     -3.1079664E-29
   3.610000     -3.4917916E-29
   3.620000     -3.8874264E-29
   3.630000     -4.2933041E-29
   3.640000     -4.7076562E-29
   3.650000     -5.1285047E-29
   3.660000     -5.5536585E-29
   3.670000     -5.9807070E-29
   3.680000     -6.4070206E-29
   3.690000     -6.8297442E-29
   3.700000     -7.2457998E-29
   3.710000     -7.6518864E-29
   3.720000     -8.0444824E-29
   3.730000     -8.4198473E-29
   3.740000     -8.7740301E-29
   3.750000     -9.1028730E-29
   3.760000     -9.4020235E-29
   3.770000     -9.6669429E-29
   3.780000     -9.8929201E-29
   3.790000     -1.0075084E-28
   3.800000     -1.0208427E-28
   3.810000     -1.0287813E-28
   3.820000     -1.0308014E-28
   3.830000     -1.0263718E-28
   3.840000     -1.0149568E-28
   3.850000     -9.9601790E-29
   3.860000     -9.6901769E-29
   3.870000     -9.3342277E-29
   3.880000     -8.8870749E-29
   3.890000     -8.3435721E-29
   3.900000     -7.6987292E-29
   3.910000     -6.9477501E-29
   3.920000     -6.0860789E-29
   3.930000     -5.1094434E-29
   3.940000     -4.0139094E-29
   3.950000     -2.7959294E-29
   3.960000     -1.4523925E-29
   3.970000      1.9319343E-31
   3.980000      1.6212766E-29
   3.990000      3.3549444E-29
   4.000000      5.2211221E-29
   4.010000      7.2198883E-29
   4.020000      9.3505379E-29
   4.030000      1.1611526E-28
   4.040000      1.4000402E-28
   4.050000      1.6513753E-28
   4.060000      1.9147148E-28
   4.070000      2.1895079E-28
   4.080000      2.4750903E-28
   4.090000      2.7706775E-28
   4.100000      3.0753625E-28
   4.110000      3.3881090E-28
   4.120000      3.7077464E-28
   4.130000      4.0329671E-28
   4.140000      4.3623218E-28
   4.150000      4.6942169E-28
   4.160000      5.0269126E-28
   4.170000      5.3585178E-28
   4.180000      5.6869909E-28
   4.190000      6.0101384E-28
   4.200000      6.3256153E-28
   4.210000      6.6309258E-28
   4.220000      6.9234230E-28
   4.230000      7.2003139E-28
   4.240000      7.4586606E-28
   4.250000      7.6953868E-28
   4.260000      7.9072819E-28
   4.270000      8.0910079E-28
   4.280000      8.2431082E-28
   4.290000      8.3600151E-28
   4.300000      8.4380586E-28
   4.310000      8.4734822E-28
   4.320000      8.4624553E-28
   4.330000      8.4010817E-28
   4.340000      8.2854219E-28
   4.350000      8.1115066E-28
   4.360000      7.8753582E-28
   4.370000      7.5730069E-28
   4.380000      7.2005162E-28
   4.390000      6.7540052E-28
   4.400000      6.2296756E-28
   4.410000      5.6238334E-28
   4.420000      4.9329186E-28
   4.430000      4.1535361E-28
   4.440000      3.2824835E-28
   4.450000      2.3167864E-28
   4.460000      1.2537291E-28
   4.470000      9.0889953E-30
   4.480000     -1.1738230E-28
   4.490000     -2.5421341E-28
   4.500000     -4.0153600E-28
   4.510000     -5.5943773E-28
   4.520000     -7.2795785E-28
   4.530000     -9.0708306E-28
   4.540000     -1.0967441E-27
   4.550000     -1.2968111E-27
   4.560000     -1.5070899E-27
   4.570000     -1.7273176E-27
   4.580000     -1.9571591E-27
   4.590000     -2.1962015E-27
   4.600000     -2.4439519E-27
   4.610000     -2.6998325E-27
   4.620000     -2.9631773E-27
   4.630000     -3.2332281E-27
   4.640000     -3.5091310E-27
   4.650000     -3.7899335E-27
   4.660000     -4.0745806E-27
   4.670000     -4.3619124E-27
   4.680000     -4.6506613E-27
   4.690000     -4.9394499E-27
   4.700000     -5.2267874E-27
   4.710000     -5.5110713E-27
   4.720000     -5.7905834E-27
   4.730000     -6.0634904E-27
   4.740000     -6.3278435E-27
   4.750000     -6.5815775E-27
   4.760000     -6.8225128E-27
   4.770000     -7.0483566E-27
   4.780000     -7.2567060E-27
   4.790000     -7.4450489E-27
   4.800000     -7.6107682E-27
   4.810000     -7.7511446E-27
   4.820000     -7.8633624E-27
   4.830000     -7.9445180E-27
   4.840000     -7.9916255E-27
   4.850000     -8.0016203E-27
   4.860000     -7.9713724E-27
   4.870000     -7.8976917E-27
   4.880000     -7.7773411E-27
   4.890000     -7.6070481E-27
   4.900000     -7.3835147E-27
   4.910000     -7.1034359E-27
   4.920000     -6.7635070E-27
   4.930000     -6.3604426E-27
   4.940000     -5.8909937E-27
   4.950000     -5.3519656E-27
   4.960000     -4.7402336E-27
   4.970000     -4.0527660E-27
   4.980000     -3.2866449E-27
   4.990000     -2.4390874E-27
   5.000000     -1.5074668E-27
   5.010000     -4.8933912E-28
   5.020000      6.1752849E-28
   5.030000      1.8151381E-27
   5.040000      3.1052287E-27
   5.050000      4.4892487E-27
   5.060000      5.9683306E-27
   5.070000      7.5432567E-27
   5.080000      9.2144277E-27
   5.090000      1.0981837E-26
   5.100000      1.2845033E-26
   5.110000      1.4803087E-26
   5.120000      1.6854560E-26
   5.130000      1.8997479E-26
   5.140000      2.1229289E-26
   5.150000      2.3546828E-26
   5.160000      2.5946292E-26
   5.170000      2.8423201E-26
   5.180000      3.0972371E-26
   5.190000      3.3587870E-26
   5.200000      3.6263002E-26
   5.210000      3.8990276E-26
   5.220000      4.1761350E-26
   5.230000      4.4567033E-26
   5.240000      4.7397250E-26
   5.250000      5.0241010E-26
   5.260000      5.3086401E-26
   5.270000      5.5920538E-26
   5.280000      5.8729560E-26
   5.290000      6.1498653E-26
   5.300000      6.4211990E-26
   5.310000      6.6852732E-26
   5.320000      6.9403033E-26
   5.330000      7.1844022E-26
   5.340000      7.4155828E-26
   5.350000      7.6317566E-26
   5.360000      7.8307369E-26
   5.370000      8.0102385E-26
   5.380000      8.1678831E-26
   5.390000      8.3011962E-26
   5.400000      8.4076173E-26
   5.410000      8.4845004E-26
   5.420000      8.5291197E-26
   5.430000      8.5386717E-26
   5.440000      8.5102888E-26
   5.450000      8.4410391E-26
   5.460000      8.3279386E-26
   5.470000      8.1679570E-26
   5.480000      7.9580294E-26
   5.490000      7.6950651E-26
   5.500000      7.3759592E-26
   5.510000      6.9976036E-26
   5.520000      6.5569046E-26
   5.530000      6.0507924E-26
   5.540000      5.4762354E-26
   5.550000      4.8302616E-26
   5.560000      4.1099693E-26
   5.570000      3.3125493E-26
   5.580000      2.4353027E-26
   5.590000      1.4756609E-26
   5.600000      4.3120632E-27
   5.610000     -7.0030649E-27
   5.620000     -1.9209278E-26
   5.630000     -3.2324898E-26
   5.640000     -4.6365787E-26
   5.650000     -6.1345084E-26
   5.660000     -7.7272999E-26
   5.670000     -9.4156521E-26
   5.680000     -1.1199913E-25
   5.690000     -1.3080057E-25
   5.700000     -1.5055645E-25
   5.710000     -1.7125794E-25
   5.720000     -1.9289158E-25
   5.730000     -2.1543895E-25
   5.740000     -2.3887635E-25
   5.750000     -2.6317448E-25
   5.760000     -2.8829804E-25
   5.770000     -3.1420564E-25
   5.780000     -3.4084932E-25
   5.790000     -3.6817420E-25
   5.800000     -3.9611837E-25
   5.810000     -4.2461247E-25
   5.820000     -4.5357949E-25
   5.830000     -4.8293443E-25
   5.840000     -5.1258407E-25
   5.850000     -5.4242682E-25
   5.860000     -5.7235231E-25
   5.870000     -6.0224121E-25
   5.880000     -6.3196525E-25
   5.890000     -6.6138675E-25
   5.900000     -6.9035870E-25
   5.910000     -7.1872471E-25
   5.920000     -7.4631867E-25
   5.930000     -7.7296501E-25
   5.940000     -7.9847840E-25
   5.950000     -8.2266394E-25
   5.960000     -8.4531702E-25
   5.970000     -8.6622390E-25
   5.980000     -8.8516140E-25
   5.990000     -9.0189757E-25
   6.000000     -9.1619154E-25
   6.010000     -9.2779420E-25
   6.020000     -9.3644800E-25
   6.030000     -9.4188819E-25
   6.040000     -9.4384239E-25
   6.050000     -9.4203225E-25
   6.060000     -9.3617289E-25
   6.070000     -9.2597459E-25
   6.080000     -9.1114312E-25
   6.090000     -8.9138078E-25
   6.100000     -8.6638739E-25
   6.110000     -8.3586114E-25
   6.120000     -7.9949968E-25
   6.130000     -7.5700157E-25
   6.140000     -7.0806730E-25
   6.150000     -6.5240098E-25
   6.160000     -5.8971159E-25
   6.170000     -5.1971433E-25
   6.180000     -4.4213282E-25
   6.190000     -3.5670012E-25
   6.200000     -2.6316074E-25
   6.210000     -1.6127281E-25
   6.220000     -5.0810133E-26
   6.230000      6.8436309E-26
   6.240000      1.9665562E-25
   6.250000      3.3401505E-25
   6.260000      4.8065768E-25
   6.270000      6.3669969E-25
   6.280000      8.0222791E-25
   6.290000      9.7729808E-25
   6.300000      1.1619316E-24
   6.310000      1.3561126E-24
   6.320000      1.5597868E-24
   6.330000      1.7728564E-24
   6.340000      1.9951799E-24
   6.350000      2.2265682E-24
   6.360000      2.4667813E-24
   6.370000      2.7155259E-24
   6.380000      2.9724535E-24
   6.390000      3.2371572E-24
   6.400000      3.5091681E-24
   6.410000      3.7879535E-24
   6.420000      4.0729137E-24
   6.430000      4.3633818E-24
   6.440000      4.6586177E-24
   6.450000      4.9578074E-24
   6.460000      5.2600622E-24
   6.470000      5.5644154E-24
   6.480000      5.8698193E-24
   6.490000      6.1751460E-24
   6.500000      6.4791856E-24
   6.510000      6.7806413E-24
   6.520000      7.0781341E-24
   6.530000      7.3701973E-24
   6.540000      7.6552790E-24
   6.550000      7.9317384E-24
   6.560000      8.1978536E-24
   6.570000      8.4518124E-24
   6.580000      8.6917184E-24
   6.590000      8.9155931E-24
   6.600000      9.1213738E-24
   6.610000      9.3069202E-24
   6.620000      9.4700148E-24
   6.630000      9.6083684E-24
   6.640000      9.7196199E-24
   6.650000      9.8013427E-24
   6.660000      9.8510489E-24
   6.670000      9.8661974E-24
   6.680000      9.8441952E-24
   6.690000      9.7824077E-24
   6.700000      9.6781637E-24
   6.710000      9.5287621E-24
   6.720000      9.3314853E-24
   6.730000      9.0836024E-24
   6.740000      8.7823806E-24
   6.750000      8.4251007E-24
   6.760000      8.0090634E-24
   6.770000      7.5316014E-24
   6.780000      6.9900949E-24
   6.790000      6.3819829E-24
   6.800000      5.7047774E-24
   6.810000      4.9560790E-24
   6.820000      4.1335925E-24
   6.830000      3.2351424E-24
   6.840000      2.2586906E-24
   6.850000      1.2023514E-24
   6.860000      6.4409507E-26
   6.870000     -1.1566599E-24
   6.880000     -2.4621680E-24
   6.890000     -3.8532021E-24
   6.900000     -5.3305970E-24
   6.910000     -6.8949188E-24
   6.920000     -8.5464409E-24
   6.930000     -1.0285125E-23
   6.940000     -1.2110601E-23
   6.950000     -1.4022137E-23
   6.960000     -1.6018624E-23
   6.970000     -1.8098553E-23
   6.980000     -2.0260001E-23
   6.990000     -2.2500593E-23
   7.000000     -2.4817488E-23
   7.010000     -2.7207368E-23
   7.020000     -2.9666405E-23
   7.030000     -3.2190242E-23
   7.040000     -3.4773976E-23
   7.050000     -3.7412142E-23
   7.060000     -4.0098680E-23