  -2.600000      0.0000000E+00
  -2.590000      0.0000000E+00
  -2.580000      0.0000000E+00
  -2.570000      0.0000000E+00
  -2.560000      0.0000000E+00
  -2.550000      0.0000000E+00
  -2.540000      0.0000000E+00
  -2.530000      0.0000000E+00
  -2.520000      0.0000000E+00
  -2.510000      0.0000000E+00
  -2.500000      0.0000000E+00
  -2.490000      0.0000000E+00
  -2.480000      0.0000000E+00
  -2.470000      0.0000000E+00
  -2.460000      0.0000000E+00
  -2.450000      0.0000000E+00
  -2.440000      0.0000000E+00
  -2.430000      0.0000000E+00
  -2.420000      0.0000000E+00
  -2.410000      0.0000000E+00
  -2.400000      0.0000000E+00
  -2.390000      0.0000000E+00
  -2.380000      0.0000000E+00
  -2.370000      0.0000000E+00
  -2.360000      0.0000000E+00
  -2.350000      0.0000000E+00
  -2.340000      0.0000000E+00
  -2.330000      0.0000000E+00
  -2.320000      0.0000000E+00
  -2.310000      0.0000000E+00
  -2.300000      0.0000000E+00
  -2.290000      0.0000000E+00
  -2.280000      0.0000000E+00
  -2.270000      0.0000000E+00
  -2.260000      0.0000000E+00
  -2.250000      0.0000000E+00
  -2.240000      0.0000000E+00
  -2.230000      0.0000000E+00
  -2.220000      0.0000000E+00
  -2.210000      0.0000000E+00
  -2.200000      0.0000000E+00
  -2.190000      0.0000000E+00
  -2.180000      0.0000000E+00
  -2.170000      0.0000000E+00
  -2.160000      0.0000000E+00
  -2.150000      0.0000000E+00
  -2.140000      0.0000000E+00
  -2.130000      0.0000000E+00
  -2.120000      0.0000000E+00
  -2.110000      0.0000000E+00
  -2.100000      0.0000000E+00
  -2.090000      0.0000000E+00
  -2.080000      0.0000000E+00
  -2.070000      0.0000000E+00
  -2.060000      0.0000000E+00
  -2.050000      0.0000000E+00
  -2.040000      0.0000000E+00
  -2.030000      0.0000000E+00
  -2.020000      0.0000000E+00
  -2.010000      0.0000000E+00
  -2.000000      0.0000000E+00
  -1.990000      0.0000000E+00
  -1.980000      0.0000000E+00
  -1.970000      0.0000000E+00
  -1.960000      0.0000000E+00
  -1.950000      0.0000000E+00
  -1.940000      0.0000000E+00
  -1.930000      0.0000000E+00
  -1.920000      0.0000000E+00
  -1.910000      0.0000000E+00
  -1.900000      0.0000000E+00
  -1.890000      0.0000000E+00
  -1.880000      0.0000000E+00
  -1.870000      0.0000000E+00
  -1.860000      0.0000000E+00
  -1.850000      0.0000000E+00
  -1.840000      0.0000000E+00
  -1.830000      0.0000000E+00
  -1.820000      0.0000000E+00
  -1.810000      0.0000000E+00
  -1.800000      0.0000000E+00
  -1.790000      0.0000000E+00
  -1.780000      0.0000000E+00
  -1.770000      0.0000000E+00
  -1.760000      0.0000000E+00
  -1.750000      0.0000000E+00
  -1.740000      0.0000000E+00
  -1.730000      0.0000000E+00
  -1.720000      0.0000000E+00
  -1.710000      0.0000000E+00
  -1.700000      0.0000000E+00
  -1.690000      0.0000000E+00
  -1.680000      0.0000000E+00
  -1.670000      0.0000000E+00
  -1.660000      0.0000000E+00
  -1.650000      0.0000000E+00
  -1.640000      0.0000000E+00
  -1.630000      0.0000000E+00
  -1.620000      0.0000000E+00
  -1.610000      0.0000000E+00
  -1.600000      0.0000000E+00
  -1.590000      0.0000000E+00
  -1.580000      0.0000000E+00
  -1.570000      0.0000000E+00
  -1.560000      0.0000000E+00
  -1.550000      0.0000000E+00
  -1.540000      0.0000000E+00
  -1.530000      0.0000000E+00
  -1.520000      0.0000000E+00
  -1.510000      0.0000000E+00
  -1.500000      0.0000000E+00
  -1.490000      0.0000000E+00
  -1.480000      0.0000000E+00
  -1.470000      0.0000000E+00
  -1.460000      0.0000000E+00
  -1.450000      0.0000000E+00
  -1.440000      0.0000000E+00
  -1.430000      0.0000000E+00
  -1.420000      0.0000000E+00
  -1.410000      0.0000000E+00
  -1.400000      0.0000000E+00
  -1.390000      0.0000000E+00
  -1.380000      0.0000000E+00
  -1.370000      0.0000000E+00
  -1.360000      0.0000000E+00
  -1.350000      0.0000000E+00
  -1.340000      0.0000000E+00
  -1.330000      0.0000000E+00
  -1.320000      0.0000000E+00
  -1.310000      0.0000000E+00
  -1.300000      0.0000000E+00
  -1.290000      0.0000000E+00
  -1.280000      0.0000000E+00
  -1.270000      0.0000000E+00
  -1.260000      0.0000000E+00
  -1.250000      0.0000000E+00
  -1.240000      0.0000000E+00
  -1.230000      0.0000000E+00
  -1.220000      0.0000000E+00
  -1.210000      0.0000000E+00
  -1.200000      0.0000000E+00
  -1.190000      0.0000000E+00
  -1.180000      0.0000000E+00
  -1.170000      0.0000000E+00
  -1.160000      0.0000000E+00
  -1.150000      0.0000000E+00
  -1.140000      0.0000000E+00
  -1.130000      0.0000000E+00
  -1.120000      0.0000000E+00
  -1.110000      0.0000000E+00
  -1.100000      0.0000000E+00
  -1.090000      0.0000000E+00
  -1.080000      0.0000000E+00
  -1.070000      0.0000000E+00
  -1.060000      0.0000000E+00
  -1.050000      0.0000000E+00
  -1.040000      0.0000000E+00
  -1.030000      0.0000000E+00
  -1.020000      0.0000000E+00
  -1.010000      0.0000000E+00
  -1.000000      0.0000000E+00
 -0.9900000      0.0000000E+00
 -0.9800000      0.0000000E+00
 -0.9700000      0.0000000E+00
 -0.9600000      0.0000000E+00
 -0.9500000      0.0000000E+00
 -0.9400000      0.0000000E+00
 -0.9300000      0.0000000E+00
 -0.9200000      0.0000000E+00
 -0.9100000      0.0000000E+00
 -0.9000000      0.0000000E+00
 -0.8900000      0.0000000E+00
 -0.8800000      0.0000000E+00
 -0.8700000      0.0000000E+00
 -0.8600000      0.0000000E+00
 -0.8500000      0.0000000E+00
 -0.8400000      0.0000000E+00
 -0.8300000      0.0000000E+00
 -0.8200000      0.0000000E+00
 -0.8100000      0.0000000E+00
 -0.8000000      0.0000000E+00
 -0.7900000      0.0000000E+00
 -0.7800000      0.0000000E+00
 -0.7700000      0.0000000E+00
 -0.7600000      0.0000000E+00
 -0.7500000      0.0000000E+00
 -0.7400000      0.0000000E+00
 -0.7300000      0.0000000E+00
 -0.7200000      0.0000000E+00
 -0.7100000      0.0000000E+00
 -0.7000000      0.0000000E+00
 -0.6900000      0.0000000E+00
 -0.6800000      0.0000000E+00
 -0.6700000      0.0000000E+00
 -0.6600000      0.0000000E+00
 -0.6500000      0.0000000E+00
 -0.6400000      0.0000000E+00
 -0.6300000      0.0000000E+00
 -0.6200000      0.0000000E+00
 -0.6100000      0.0000000E+00
 -0.6000000      0.0000000E+00
 -0.5900000      0.0000000E+00
 -0.5800000      0.0000000E+00
 -0.5700000      0.0000000E+00
 -0.5600000      0.0000000E+00
 -0.5500000      0.0000000E+00
 -0.5400000      0.0000000E+00
 -0.5300000      0.0000000E+00
 -0.5200000      0.0000000E+00
 -0.5100000      0.0000000E+00
 -0.5000000      0.0000000E+00
 -0.4900000      0.0000000E+00
 -0.4800000      0.0000000E+00
 -0.4700000      0.0000000E+00
 -0.4600000      0.0000000E+00
 -0.4500000      0.0000000E+00
 -0.4400000      0.0000000E+00
 -0.4300000      0.0000000E+00
 -0.4200000      0.0000000E+00
 -0.4100000      0.0000000E+00
 -0.4000000      0.0000000E+00
 -0.3900000      0.0000000E+00
 -0.3800000      0.0000000E+00
 -0.3700000      0.0000000E+00
 -0.3600000      0.0000000E+00
 -0.3500000      0.0000000E+00
 -0.3400000      0.0000000E+00
 -0.3300000      0.0000000E+00
 -0.3200000      0.0000000E+00
 -0.3100000      0.0000000E+00
 -0.3000000      0.0000000E+00
 -0.2900000      0.0000000E+00
 -0.2800000      0.0000000E+00
 -0.2700000      0.0000000E+00
 -0.2600000      0.0000000E+00
 -0.2500000      0.0000000E+00
 -0.2400000      0.0000000E+00
 -0.2300000      0.0000000E+00
 -0.2200000      0.0000000E+00
 -0.2100000      0.0000000E+00
 -0.2000000      0.0000000E+00
 -0.1900000      0.0000000E+00
 -0.1800000      0.0000000E+00
 -0.1700000      0.0000000E+00
 -0.1600000      0.0000000E+00
 -0.1500000      0.0000000E+00
 -0.1400000      0.0000000E+00
 -0.1300000      0.0000000E+00
 -0.1200000      0.0000000E+00
 -0.1100000      0.0000000E+00
 -0.1000000      0.0000000E+00
 -9.0000004E-02  0.0000000E+00
 -7.9999998E-02  0.0000000E+00
 -7.0000000E-02  0.0000000E+00
 -5.9999999E-02  0.0000000E+00
 -5.0000001E-02  0.0000000E+00
 -3.9999999E-02  0.0000000E+00
 -2.9999999E-02  0.0000000E+00
 -2.0000000E-02  0.0000000E+00
 -9.9999998E-03  0.0000000E+00
 -3.4694470E-17  0.0000000E+00
  9.9999998E-03  0.0000000E+00
  2.0000000E-02  0.0000000E+00
  2.9999999E-02  0.0000000E+00
  3.9999999E-02  0.0000000E+00
  5.0000001E-02  0.0000000E+00
  5.9999999E-02  0.0000000E+00
  7.0000000E-02  0.0000000E+00
  7.9999998E-02  0.0000000E+00
  9.0000004E-02  0.0000000E+00
  0.1000000      0.0000000E+00
  0.1100000      0.0000000E+00
  0.1200000      0.0000000E+00
  0.1300000      0.0000000E+00
  0.1400000      0.0000000E+00
  0.1500000      0.0000000E+00
  0.1600000      0.0000000E+00
  0.1700000      0.0000000E+00
  0.1800000      0.0000000E+00
  0.1900000      0.0000000E+00
  0.2000000      0.0000000E+00
  0.2100000      0.0000000E+00
  0.2200000      0.0000000E+00
  0.2300000      0.0000000E+00
  0.2400000      0.0000000E+00
  0.2500000      0.0000000E+00
  0.2600000      0.0000000E+00
  0.2700000      0.0000000E+00
  0.2800000      0.0000000E+00
  0.2900000      0.0000000E+00
  0.3000000      0.0000000E+00
  0.3100000      0.0000000E+00
  0.3200000      0.0000000E+00
  0.3300000      0.0000000E+00
  0.3400000      0.0000000E+00
  0.3500000      0.0000000E+00
  0.3600000      0.0000000E+00
  0.3700000      0.0000000E+00
  0.3800000      0.0000000E+00
  0.3900000      0.0000000E+00
  0.4000000      0.0000000E+00
  0.4100000      0.0000000E+00
  0.4200000      0.0000000E+00
  0.4300000      0.0000000E+00
  0.4400000      0.0000000E+00
  0.4500000      0.0000000E+00
  0.4600000      0.0000000E+00
  0.4700000      0.0000000E+00
  0.4800000      0.0000000E+00
  0.4900000      0.0000000E+00
  0.5000000      0.0000000E+00
  0.5100000      0.0000000E+00
  0.5200000      0.0000000E+00
  0.5300000      0.0000000E+00
  0.5400000      0.0000000E+00
  0.5500000      0.0000000E+00
  0.5600000      0.0000000E+00
  0.5700000      0.0000000E+00
  0.5800000      0.0000000E+00
  0.5900000      0.0000000E+00
  0.6000000      0.0000000E+00
  0.6100000      0.0000000E+00
  0.6200000      0.0000000E+00
  0.6300000      0.0000000E+00
  0.6400000      0.0000000E+00
  0.6500000      0.0000000E+00
  0.6600000      0.0000000E+00
  0.6700000      0.0000000E+00
  0.6800000      0.0000000E+00
  0.6900000      0.0000000E+00
  0.7000000      0.0000000E+00
  0.7100000      0.0000000E+00
  0.7200000      0.0000000E+00
  0.7300000      0.0000000E+00
  0.7400000      0.0000000E+00
  0.7500000      0.0000000E+00
  0.7600000      0.0000000E+00
  0.7700000      0.0000000E+00
  0.7800000      0.0000000E+00
  0.7900000      0.0000000E+00
  0.8000000      0.0000000E+00
  0.8100000      0.0000000E+00
  0.8200000      0.0000000E+00
  0.8300000      0.0000000E+00
  0.8400000      0.0000000E+00
  0.8500000      0.0000000E+00
  0.8600000      0.0000000E+00
  0.8700000      0.0000000E+00
  0.8800000      0.0000000E+00
  0.8900000      0.0000000E+00
  0.9000000      0.0000000E+00
  0.9100000      0.0000000E+00
  0.9200000      0.0000000E+00
  0.9300000      0.0000000E+00
  0.9400000      0.0000000E+00
  0.9500000      0.0000000E+00
  0.9600000      0.0000000E+00
  0.9700000      0.0000000E+00
  0.9800000      0.0000000E+00
  0.9900000      0.0000000E+00
   1.000000      0.0000000E+00
   1.010000      0.0000000E+00
   1.020000      0.0000000E+00
   1.030000      0.0000000E+00
   1.040000      0.0000000E+00
   1.050000      0.0000000E+00
   1.060000      0.0000000E+00
   1.070000      0.0000000E+00
   1.080000      0.0000000E+00
   1.090000      0.0000000E+00
   1.100000      0.0000000E+00
   1.110000      0.0000000E+00
   1.120000      0.0000000E+00
   1.130000      0.0000000E+00
   1.140000      0.0000000E+00
   1.150000      0.0000000E+00
   1.160000      0.0000000E+00
   1.170000      0.0000000E+00
   1.180000      0.0000000E+00
   1.190000      0.0000000E+00
   1.200000      0.0000000E+00
   1.210000      0.0000000E+00
   1.220000      0.0000000E+00
   1.230000      0.0000000E+00
   1.240000      0.0000000E+00
   1.250000      0.0000000E+00
   1.260000      0.0000000E+00
   1.270000      0.0000000E+00
   1.280000      0.0000000E+00
   1.290000      0.0000000E+00
   1.300000      0.0000000E+00
   1.310000      0.0000000E+00
   1.320000      0.0000000E+00
   1.330000      0.0000000E+00
   1.340000      0.0000000E+00
   1.350000      0.0000000E+00
   1.360000      0.0000000E+00
   1.370000      0.0000000E+00
   1.380000      0.0000000E+00
   1.390000      0.0000000E+00
   1.400000      0.0000000E+00
   1.410000      0.0000000E+00
   1.420000      0.0000000E+00
   1.430000      0.0000000E+00
   1.440000      0.0000000E+00
   1.450000      0.0000000E+00
   1.460000      0.0000000E+00
   1.470000      0.0000000E+00
   1.480000      0.0000000E+00
   1.490000      0.0000000E+00
   1.500000      0.0000000E+00
   1.510000      0.0000000E+00
   1.520000      0.0000000E+00
   1.530000      0.0000000E+00
   1.540000      0.0000000E+00
   1.550000      0.0000000E+00
   1.560000      0.0000000E+00
   1.570000      0.0000000E+00
   1.580000      0.0000000E+00
   1.590000      0.0000000E+00
   1.600000      0.0000000E+00
   1.610000      0.0000000E+00
   1.620000      0.0000000E+00
   1.630000      0.0000000E+00
   1.640000      0.0000000E+00
   1.650000      0.0000000E+00
   1.660000      0.0000000E+00
   1.670000      0.0000000E+00
   1.680000      0.0000000E+00
   1.690000      0.0000000E+00
   1.700000      0.0000000E+00
   1.710000      0.0000000E+00
   1.720000      0.0000000E+00
   1.730000      0.0000000E+00
   1.740000      0.0000000E+00
   1.750000      0.0000000E+00
   1.760000      0.0000000E+00
   1.770000      0.0000000E+00
   1.780000      0.0000000E+00
   1.790000      0.0000000E+00
   1.800000      0.0000000E+00
   1.810000      0.0000000E+00
   1.820000      0.0000000E+00
   1.830000      0.0000000E+00
   1.840000      0.0000000E+00
   1.850000      0.0000000E+00
   1.860000      0.0000000E+00
   1.870000      0.0000000E+00
   1.880000      0.0000000E+00
   1.890000      0.0000000E+00
   1.900000      0.0000000E+00
   1.910000      0.0000000E+00
   1.920000      0.0000000E+00
   1.930000      0.0000000E+00
   1.940000      0.0000000E+00
   1.950000      0.0000000E+00
   1.960000      0.0000000E+00
   1.970000      0.0000000E+00
   1.980000      0.0000000E+00
   1.990000      0.0000000E+00
   2.000000      0.0000000E+00
   2.010000      0.0000000E+00
   2.020000      0.0000000E+00
   2.030000      0.0000000E+00
   2.040000      0.0000000E+00
   2.050000      0.0000000E+00
   2.060000      0.0000000E+00
   2.070000      0.0000000E+00
   2.080000      0.0000000E+00
   2.090000      0.0000000E+00
   2.100000      0.0000000E+00
   2.110000      0.0000000E+00
   2.120000      0.0000000E+00
   2.130000      0.0000000E+00
   2.140000      0.0000000E+00
   2.150000      0.0000000E+00
   2.160000      0.0000000E+00
   2.170000      0.0000000E+00
   2.180000      0.0000000E+00
   2.190000      0.0000000E+00
   2.200000      0.0000000E+00
   2.210000      0.0000000E+00
   2.220000      0.0000000E+00
   2.230000      0.0000000E+00
   2.240000      0.0000000E+00
   2.250000      0.0000000E+00
   2.260000      0.0000000E+00
   2.270000      0.0000000E+00
   2.280000      0.0000000E+00
   2.290000      0.0000000E+00
   2.300000      0.0000000E+00
   2.310000      0.0000000E+00
   2.320000      0.0000000E+00
   2.330000      0.0000000E+00
   2.340000      0.0000000E+00
   2.350000      0.0000000E+00
   2.360000      0.0000000E+00
   2.370000      0.0000000E+00
   2.380000      0.0000000E+00
   2.390000      0.0000000E+00
   2.400000      0.0000000E+00
   2.410000      0.0000000E+00
   2.420000      0.0000000E+00
   2.430000      0.0000000E+00
   2.440000      0.0000000E+00
   2.450000      0.0000000E+00
   2.460000      0.0000000E+00
   2.470000      0.0000000E+00
   2.480000      0.0000000E+00
   2.490000      0.0000000E+00
   2.500000      0.0000000E+00
   2.510000      0.0000000E+00
   2.520000      0.0000000E+00
   2.530000      0.0000000E+00
   2.540000      0.0000000E+00
   2.550000      0.0000000E+00
   2.560000      0.0000000E+00
   2.570000      0.0000000E+00
   2.580000      0.0000000E+00
   2.590000      0.0000000E+00
   2.600000      0.0000000E+00
   2.610000      0.0000000E+00
   2.620000      0.0000000E+00
   2.630000      0.0000000E+00
   2.640000      0.0000000E+00
   2.650000      0.0000000E+00
   2.660000      0.0000000E+00
   2.670000      0.0000000E+00
   2.680000      0.0000000E+00
   2.690000      0.0000000E+00
   2.700000      0.0000000E+00
   2.710000      0.0000000E+00
   2.720000      0.0000000E+00
   2.730000      0.0000000E+00
   2.740000      0.0000000E+00
   2.750000      0.0000000E+00
   2.760000      0.0000000E+00
   2.770000      0.0000000E+00
   2.780000      0.0000000E+00
   2.790000      0.0000000E+00
   2.800000      0.0000000E+00
   2.810000      0.0000000E+00
   2.820000      0.0000000E+00
   2.830000      0.0000000E+00
   2.840000      0.0000000E+00
   2.850000      0.0000000E+00
   2.860000      0.0000000E+00
   2.870000      0.0000000E+00
   2.880000      0.0000000E+00
   2.890000      0.0000000E+00
   2.900000      0.0000000E+00
   2.910000      0.0000000E+00
   2.920000      0.0000000E+00
   2.930000      0.0000000E+00
   2.940000      0.0000000E+00
   2.950000      0.0000000E+00
   2.960000      0.0000000E+00
   2.970000      0.0000000E+00
   2.980000      0.0000000E+00
   2.990000      0.0000000E+00
   3.000000      0.0000000E+00
   3.010000      0.0000000E+00
   3.020000      0.0000000E+00
   3.030000      0.0000000E+00
   3.040000      0.0000000E+00
   3.050000      0.0000000E+00
   3.060000      0.0000000E+00
   3.070000      0.0000000E+00
   3.080000      0.0000000E+00
   3.090000      0.0000000E+00
   3.100000      0.0000000E+00
   3.110000      0.0000000E+00
   3.120000      0.0000000E+00
   3.130000      0.0000000E+00
   3.140000      0.0000000E+00
   3.150000      0.0000000E+00
   3.160000      0.0000000E+00
   3.170000      0.0000000E+00
   3.180000      0.0000000E+00
   3.190000      0.0000000E+00
   3.200000      0.0000000E+00
   3.210000      0.0000000E+00
   3.220000      0.0000000E+00
   3.230000      0.0000000E+00
   3.240000      0.0000000E+00
   3.250000      0.0000000E+00
   3.260000      0.0000000E+00
   3.270000      0.0000000E+00
   3.280000      0.0000000E+00
   3.290000      0.0000000E+00
   3.300000      0.0000000E+00
   3.310000      0.0000000E+00
   3.320000      0.0000000E+00
   3.330000      0.0000000E+00
   3.340000      0.0000000E+00
   3.350000      0.0000000E+00
   3.360000      0.0000000E+00
   3.370000      0.0000000E+00
   3.380000      0.0000000E+00
   3.390000      0.0000000E+00
   3.400000      0.0000000E+00
   3.410000      0.0000000E+00
   3.420000      0.0000000E+00
   3.430000      0.0000000E+00
   3.440000      0.0000000E+00
   3.450000      0.0000000E+00
   3.460000      0.0000000E+00
   3.470000      0.0000000E+00
   3.480000      0.0000000E+00
   3.490000      0.0000000E+00
   3.500000      0.0000000E+00
   3.510000      0.0000000E+00
   3.520000      0.0000000E+00
   3.530000      0.0000000E+00
   3.540000      0.0000000E+00
   3.550000      0.0000000E+00
   3.560000      0.0000000E+00
   3.570000      0.0000000E+00
   3.580000      0.0000000E+00
   3.590000      0.0000000E+00
   3.600000      0.0000000E+00
   3.610000      0.0000000E+00
   3.620000      0.0000000E+00
   3.630000      0.0000000E+00
   3.640000      0.0000000E+00
   3.650000      0.0000000E+00
   3.660000      0.0000000E+00
   3.670000      0.0000000E+00
   3.680000      0.0000000E+00
   3.690000      0.0000000E+00
   3.700000      0.0000000E+00
   3.710000      0.0000000E+00
   3.720000      0.0000000E+00
   3.730000      0.0000000E+00
   3.740000      0.0000000E+00
   3.750000      0.0000000E+00
   3.760000      0.0000000E+00
   3.770000      0.0000000E+00
   3.780000      0.0000000E+00
   3.790000      0.0000000E+00
   3.800000      0.0000000E+00
   3.810000      0.0000000E+00
   3.820000      0.0000000E+00
   3.830000      0.0000000E+00
   3.840000      0.0000000E+00
   3.850000      0.0000000E+00
   3.860000      0.0000000E+00
   3.870000      0.0000000E+00
   3.880000      0.0000000E+00
   3.890000      0.0000000E+00
   3.900000      0.0000000E+00
   3.910000      0.0000000E+00
   3.920000      0.0000000E+00
   3.930000      0.0000000E+00
   3.940000      0.0000000E+00
   3.950000      0.0000000E+00
   3.960000      0.0000000E+00
   3.970000      0.0000000E+00
   3.980000      0.0000000E+00
   3.990000      0.0000000E+00
   4.000000      0.0000000E+00
   4.010000      0.0000000E+00
   4.020000      0.0000000E+00
   4.030000      0.0000000E+00
   4.040000      0.0000000E+00
   4.050000      0.0000000E+00
   4.060000      0.0000000E+00
   4.070000      0.0000000E+00
   4.080000      0.0000000E+00
   4.090000      0.0000000E+00
   4.100000      0.0000000E+00
   4.110000      0.0000000E+00
   4.120000      0.0000000E+00
   4.130000      0.0000000E+00
   4.140000      0.0000000E+00
   4.150000      0.0000000E+00
   4.160000      0.0000000E+00
   4.170000      0.0000000E+00
   4.180000      0.0000000E+00
   4.190000      0.0000000E+00
   4.200000      0.0000000E+00
   4.210000      0.0000000E+00
   4.220000      0.0000000E+00
   4.230000      0.0000000E+00
   4.240000      0.0000000E+00
   4.250000      0.0000000E+00
   4.260000      0.0000000E+00
   4.270000     -1.1895754E-38
   4.280000     -1.1948855E-38
   4.290000      0.0000000E+00
   4.300000      0.0000000E+00
   4.310000      0.0000000E+00
   4.320000      0.0000000E+00
   4.330000      0.0000000E+00
   4.340000      0.0000000E+00
   4.350000      0.0000000E+00
   4.360000      0.0000000E+00
   4.370000      0.0000000E+00
   4.380000      0.0000000E+00
   4.390000      0.0000000E+00
   4.400000      0.0000000E+00
   4.410000      0.0000000E+00
   4.420000      0.0000000E+00
   4.430000      0.0000000E+00
   4.440000      0.0000000E+00
   4.450000      1.4264642E-38
   4.460000      1.8961911E-38
   4.470000      2.4327135E-38
   4.480000      3.0262873E-38
   4.490000      3.6590215E-38
   4.500000      4.3135907E-38
   4.510000      4.9755854E-38
   4.520000      5.6326666E-38
   4.530000      6.2864149E-38
   4.540000      6.9252977E-38
   4.550000      7.7054959E-38
   4.560000      8.5524816E-38
   4.570000      9.1870977E-38
   4.580000      9.6403628E-38
   4.590000      9.8833816E-38
   4.600000      1.0072659E-37
   4.610000      1.0358516E-37
   4.620000      1.0621932E-37
   4.630000      1.0882374E-37
   4.640000      1.1193573E-37
   4.650000      1.1424851E-37
   4.660000      1.1515686E-37
   4.670000      1.1031061E-37
   4.680000      9.0798608E-38
   4.690000      6.8236879E-38
   4.700000      5.0398080E-38
   4.710000      3.1189084E-38
   4.720000      1.3393569E-38
   4.730000      0.0000000E+00
   4.740000     -2.1600297E-38
   4.750000     -2.9711902E-38
   4.760000     -2.4938012E-38
   4.770000     -2.3337149E-38
   4.780000     -2.7427281E-38
   4.790000     -4.1017604E-38
   4.800000     -6.4687541E-38
   4.810000     -9.0916171E-38
   4.820000     -1.2162155E-37
   4.830000     -1.5718138E-37
   4.840000     -1.9882028E-37
   4.850000     -2.4434455E-37
   4.860000     -2.9082669E-37
   4.870000     -3.3691336E-37
   4.880000     -3.8364104E-37
   4.890000     -4.3365237E-37
   4.900000     -4.8521585E-37
   4.910000     -5.3938686E-37
   4.920000     -5.9877802E-37
   4.930000     -6.6751653E-37
   4.940000     -7.4348013E-37
   4.950000     -8.1833552E-37
   4.960000     -8.9013842E-37
   4.970000     -9.5910741E-37
   4.980000     -1.0246384E-36
   4.990000     -1.0812782E-36
   5.000000     -1.1517256E-36
   5.010000     -1.2481829E-36
   5.020000     -1.3541808E-36
   5.030000     -1.4620295E-36
   5.040000     -1.5614623E-36
   5.050000     -1.6480117E-36
   5.060000     -1.7413658E-36
   5.070000     -1.8467512E-36
   5.080000     -1.9168113E-36
   5.090000     -1.9083466E-36
   5.100000     -1.7988839E-36
   5.110000     -1.6221722E-36
   5.120000     -1.4297980E-36
   5.130000     -1.2271928E-36
   5.140000     -1.0984779E-36
   5.150000     -1.0390946E-36
   5.160000     -9.6935102E-37
   5.170000     -8.6332864E-37
   5.180000     -7.1835241E-37
   5.190000     -5.6088197E-37
   5.200000     -3.9257356E-37
   5.210000     -2.5034215E-37
   5.220000     -1.3351407E-37
   5.230000      0.0000000E+00
   5.240000      1.2609816E-37
   5.250000      3.5589178E-37
   5.260000      6.7632350E-37
   5.270000      9.9053129E-37
   5.280000      1.3153843E-36
   5.290000      1.6716349E-36
   5.300000      2.1482703E-36
   5.310000      2.7699862E-36
   5.320000      3.4352886E-36
   5.330000      4.1166355E-36
   5.340000      4.6814529E-36
   5.350000      5.1166950E-36
   5.360000      5.5127510E-36
   5.370000      5.8817984E-36
   5.380000      6.3267719E-36
   5.390000      6.8762337E-36
   5.400000      7.5617075E-36
   5.410000      8.4089854E-36
   5.420000      9.3452361E-36
   5.430000      1.0303425E-35
   5.440000      1.1294040E-35
   5.450000      1.2359784E-35
   5.460000      1.3531970E-35
   5.470000      1.4630062E-35
   5.480000      1.5442067E-35
   5.490000      1.6101871E-35
   5.500000      1.6712298E-35
   5.510000      1.7199242E-35
   5.520000      1.7424863E-35
   5.530000      1.7299496E-35
   5.540000      1.6912086E-35
   5.550000      1.6308434E-35
   5.560000      1.5488785E-35
   5.570000      1.4551082E-35
   5.580000      1.3630079E-35
   5.590000      1.2691292E-35
   5.600000      1.1683563E-35
   5.610000      1.0605591E-35
   5.620000      9.3952527E-36
   5.630000      8.1022283E-36
   5.640000      6.5976558E-36
   5.650000      4.8127863E-36
   5.660000      2.9182523E-36
   5.670000      1.0184255E-36
   5.680000     -8.7471418E-37
   5.690000     -2.9659590E-36
   5.700000     -5.4339124E-36
   5.710000     -8.3249466E-36
   5.720000     -1.1546460E-35
   5.730000     -1.4488241E-35
   5.740000     -1.7190827E-35
   5.750000     -2.0116218E-35
   5.760000     -2.3177889E-35
   5.770000     -2.6795919E-35
   5.780000     -3.1209840E-35
   5.790000     -3.6125252E-35
   5.800000     -4.1057894E-35
   5.810000     -4.5745815E-35
   5.820000     -5.0396450E-35
   5.830000     -5.4874550E-35
   5.840000     -5.9220045E-35
   5.850000     -6.3511162E-35
   5.860000     -6.7909870E-35
   5.870000     -7.2383280E-35
   5.880000     -7.6879787E-35
   5.890000     -8.1175370E-35
   5.900000     -8.5035078E-35
   5.910000     -8.8747143E-35
   5.920000     -9.3189404E-35
   5.930000     -9.8347126E-35
   5.940000     -1.0407167E-34
   5.950000     -1.1088259E-34
   5.960000     -1.1801300E-34
   5.970000     -1.2509377E-34
   5.980000     -1.3133814E-34
   5.990000     -1.3581957E-34
   6.000000     -1.3926326E-34
   6.010000     -1.4164806E-34
   6.020000     -1.4244538E-34
   6.030000     -1.4230641E-34
   6.040000     -1.4120750E-34
   6.050000     -1.3894575E-34
   6.060000     -1.3540742E-34
   6.070000     -1.3046606E-34
   6.080000     -1.2437409E-34
   6.090000     -1.1715025E-34
   6.100000     -1.0917892E-34
   6.110000     -1.0059002E-34
   6.120000     -9.0910225E-35
   6.130000     -8.0058392E-35
   6.140000     -6.7908194E-35
   6.150000     -5.4394009E-35
   6.160000     -3.8818193E-35
   6.170000     -2.1656741E-35
   6.180000     -4.0786059E-36
   6.190000      1.4724756E-35
   6.200000      3.3547191E-35
   6.210000      5.2433436E-35
   6.220000      7.3310761E-35
   6.230000      9.5679477E-35
   6.240000      1.1795289E-34
   6.250000      1.4049469E-34
   6.260000      1.6432241E-34
   6.270000      1.8905458E-34
   6.280000      2.1425866E-34
   6.290000      2.4193412E-34
   6.300000      2.7323581E-34
   6.310000      3.0818890E-34
   6.320000      3.4620543E-34
   6.330000      3.8727681E-34
   6.340000      4.2836424E-34
   6.350000      4.6782939E-34
   6.360000      5.0911028E-34
   6.370000      5.5500699E-34
   6.380000      6.0296198E-34
   6.390000      6.4681563E-34
   6.400000      6.9055242E-34
   6.410000      7.3750998E-34
   6.420000      7.8551822E-34
   6.430000      8.3478255E-34
   6.440000      8.8474106E-34
   6.450000      9.2965201E-34
   6.460000      9.6853480E-34
   6.470000      1.0011458E-33
   6.480000      1.0269658E-33
   6.490000      1.0497238E-33
   6.500000      1.0694965E-33
   6.510000      1.0879288E-33
   6.520000      1.1048572E-33
   6.530000      1.1179889E-33
   6.540000      1.1256805E-33
   6.550000      1.1282342E-33
   6.560000      1.1261111E-33
   6.570000      1.1205647E-33
   6.580000      1.1115993E-33
   6.590000      1.0958708E-33
   6.600000      1.0725442E-33
   6.610000      1.0420327E-33
   6.620000      1.0074438E-33
   6.630000      9.6958760E-34
   6.640000      9.2573321E-34
   6.650000      8.7433316E-34
   6.660000      8.1430241E-34
   6.670000      7.4580359E-34
   6.680000      6.6988011E-34
   6.690000      5.8488756E-34
   6.700000      4.8869212E-34
   6.710000      3.8182316E-34
   6.720000      2.6479831E-34
   6.730000      1.3805503E-34
   6.740000     -8.0734382E-38
   6.750000     -1.5423796E-34
   6.760000     -3.2291385E-34
   6.770000     -5.0198136E-34
   6.780000     -6.9069835E-34
   6.790000     -8.9371697E-34
   6.800000     -1.1128995E-33
   6.810000     -1.3427061E-33
   6.820000     -1.5842782E-33
   6.830000     -1.8420285E-33
   6.840000     -2.1135420E-33
   6.850000     -2.3960972E-33
   6.860000     -2.6908873E-33
   6.870000     -2.9979049E-33
   6.880000     -3.3161181E-33
   6.890000     -3.6451393E-33
   6.900000     -3.9813296E-33
   6.910000     -4.3241886E-33
   6.920000     -4.6757499E-33
   6.930000     -5.0342875E-33
   6.940000     -5.3974513E-33
   6.950000     -5.7635068E-33
   6.960000     -6.1322282E-33
   6.970000     -6.5020464E-33
   6.980000     -6.8710804E-33
   6.990000     -7.2378339E-33
   7.000000     -7.6002623E-33
   7.010000     -7.9576750E-33
   7.020000     -8.3082515E-33
   7.030000     -8.6474816E-33
   7.040000     -8.9740339E-33
   7.050000     -9.2870490E-33
   7.060000     -9.5814273E-33