  -2.600000      0.0000000E+00
  -2.590000      0.0000000E+00
  -2.580000      0.0000000E+00
  -2.570000      0.0000000E+00
  -2.560000      0.0000000E+00
  -2.550000      0.0000000E+00
  -2.540000      0.0000000E+00
  -2.530000      0.0000000E+00
  -2.520000      0.0000000E+00
  -2.510000      0.0000000E+00
  -2.500000      0.0000000E+00
  -2.490000      0.0000000E+00
  -2.480000      0.0000000E+00
  -2.470000      0.0000000E+00
  -2.460000      0.0000000E+00
  -2.450000      0.0000000E+00
  -2.440000      0.0000000E+00
  -2.430000      0.0000000E+00
  -2.420000      0.0000000E+00
  -2.410000      0.0000000E+00
  -2.400000      0.0000000E+00
  -2.390000      0.0000000E+00
  -2.380000      0.0000000E+00
  -2.370000      0.0000000E+00
  -2.360000      0.0000000E+00
  -2.350000      0.0000000E+00
  -2.340000      0.0000000E+00
  -2.330000      0.0000000E+00
  -2.320000      0.0000000E+00
  -2.310000      0.0000000E+00
  -2.300000      0.0000000E+00
  -2.290000      0.0000000E+00
  -2.280000      0.0000000E+00
  -2.270000      0.0000000E+00
  -2.260000      0.0000000E+00
  -2.250000      0.0000000E+00
  -2.240000      0.0000000E+00
  -2.230000      0.0000000E+00
  -2.220000      0.0000000E+00
  -2.210000      0.0000000E+00
  -2.200000      0.0000000E+00
  -2.190000      0.0000000E+00
  -2.180000      0.0000000E+00
  -2.170000      0.0000000E+00
  -2.160000      0.0000000E+00
  -2.150000      0.0000000E+00
  -2.140000      0.0000000E+00
  -2.130000      0.0000000E+00
  -2.120000      0.0000000E+00
  -2.110000      0.0000000E+00
  -2.100000      0.0000000E+00
  -2.090000      0.0000000E+00
  -2.080000      0.0000000E+00
  -2.070000      0.0000000E+00
  -2.060000      0.0000000E+00
  -2.050000      0.0000000E+00
  -2.040000      0.0000000E+00
  -2.030000      0.0000000E+00
  -2.020000      0.0000000E+00
  -2.010000      0.0000000E+00
  -2.000000      0.0000000E+00
  -1.990000      0.0000000E+00
  -1.980000      0.0000000E+00
  -1.970000      0.0000000E+00
  -1.960000      0.0000000E+00
  -1.950000      0.0000000E+00
  -1.940000      0.0000000E+00
  -1.930000      0.0000000E+00
  -1.920000      0.0000000E+00
  -1.910000      0.0000000E+00
  -1.900000      0.0000000E+00
  -1.890000      0.0000000E+00
  -1.880000      0.0000000E+00
  -1.870000      0.0000000E+00
  -1.860000      0.0000000E+00
  -1.850000      0.0000000E+00
  -1.840000      0.0000000E+00
  -1.830000      0.0000000E+00
  -1.820000      0.0000000E+00
  -1.810000      0.0000000E+00
  -1.800000      0.0000000E+00
  -1.790000      0.0000000E+00
  -1.780000      0.0000000E+00
  -1.770000      0.0000000E+00
  -1.760000      0.0000000E+00
  -1.750000      0.0000000E+00
  -1.740000      0.0000000E+00
  -1.730000      0.0000000E+00
  -1.720000      0.0000000E+00
  -1.710000      0.0000000E+00
  -1.700000      0.0000000E+00
  -1.690000      0.0000000E+00
  -1.680000      0.0000000E+00
  -1.670000      0.0000000E+00
  -1.660000      0.0000000E+00
  -1.650000      0.0000000E+00
  -1.640000      0.0000000E+00
  -1.630000      0.0000000E+00
  -1.620000      0.0000000E+00
  -1.610000      0.0000000E+00
  -1.600000      0.0000000E+00
  -1.590000      0.0000000E+00
  -1.580000      0.0000000E+00
  -1.570000      0.0000000E+00
  -1.560000      0.0000000E+00
  -1.550000      0.0000000E+00
  -1.540000      0.0000000E+00
  -1.530000      0.0000000E+00
  -1.520000      0.0000000E+00
  -1.510000      0.0000000E+00
  -1.500000      0.0000000E+00
  -1.490000      0.0000000E+00
  -1.480000      0.0000000E+00
  -1.470000      0.0000000E+00
  -1.460000      0.0000000E+00
  -1.450000      0.0000000E+00
  -1.440000      0.0000000E+00
  -1.430000      0.0000000E+00
  -1.420000      0.0000000E+00
  -1.410000      0.0000000E+00
  -1.400000      0.0000000E+00
  -1.390000      0.0000000E+00
  -1.380000      0.0000000E+00
  -1.370000      0.0000000E+00
  -1.360000      0.0000000E+00
  -1.350000      0.0000000E+00
  -1.340000      0.0000000E+00
  -1.330000      0.0000000E+00
  -1.320000      0.0000000E+00
  -1.310000      0.0000000E+00
  -1.300000      0.0000000E+00
  -1.290000      0.0000000E+00
  -1.280000      0.0000000E+00
  -1.270000      0.0000000E+00
  -1.260000      0.0000000E+00
  -1.250000      0.0000000E+00
  -1.240000      0.0000000E+00
  -1.230000      0.0000000E+00
  -1.220000      0.0000000E+00
  -1.210000      0.0000000E+00
  -1.200000      0.0000000E+00
  -1.190000      0.0000000E+00
  -1.180000      0.0000000E+00
  -1.170000      0.0000000E+00
  -1.160000      0.0000000E+00
  -1.150000      0.0000000E+00
  -1.140000      0.0000000E+00
  -1.130000      0.0000000E+00
  -1.120000      0.0000000E+00
  -1.110000      0.0000000E+00
  -1.100000      0.0000000E+00
  -1.090000      0.0000000E+00
  -1.080000      0.0000000E+00
  -1.070000      0.0000000E+00
  -1.060000      0.0000000E+00
  -1.050000      0.0000000E+00
  -1.040000      0.0000000E+00
  -1.030000      0.0000000E+00
  -1.020000      0.0000000E+00
  -1.010000      0.0000000E+00
  -1.000000      0.0000000E+00
 -0.9900000      0.0000000E+00
 -0.9800000      0.0000000E+00
 -0.9700000      0.0000000E+00
 -0.9600000      0.0000000E+00
 -0.9500000      0.0000000E+00
 -0.9400000      0.0000000E+00
 -0.9300000      0.0000000E+00
 -0.9200000      0.0000000E+00
 -0.9100000      0.0000000E+00
 -0.9000000      0.0000000E+00
 -0.8900000      0.0000000E+00
 -0.8800000      0.0000000E+00
 -0.8700000      0.0000000E+00
 -0.8600000      0.0000000E+00
 -0.8500000      0.0000000E+00
 -0.8400000      0.0000000E+00
 -0.8300000      0.0000000E+00
 -0.8200000      0.0000000E+00
 -0.8100000      0.0000000E+00
 -0.8000000      0.0000000E+00
 -0.7900000      0.0000000E+00
 -0.7800000      0.0000000E+00
 -0.7700000      0.0000000E+00
 -0.7600000      0.0000000E+00
 -0.7500000      0.0000000E+00
 -0.7400000      0.0000000E+00
 -0.7300000      0.0000000E+00
 -0.7200000      0.0000000E+00
 -0.7100000      0.0000000E+00
 -0.7000000      0.0000000E+00
 -0.6900000      0.0000000E+00
 -0.6800000      0.0000000E+00
 -0.6700000      0.0000000E+00
 -0.6600000      0.0000000E+00
 -0.6500000      0.0000000E+00
 -0.6400000      0.0000000E+00
 -0.6300000      0.0000000E+00
 -0.6200000      0.0000000E+00
 -0.6100000      0.0000000E+00
 -0.6000000      0.0000000E+00
 -0.5900000      0.0000000E+00
 -0.5800000      0.0000000E+00
 -0.5700000      0.0000000E+00
 -0.5600000      0.0000000E+00
 -0.5500000      0.0000000E+00
 -0.5400000      0.0000000E+00
 -0.5300000      0.0000000E+00
 -0.5200000      0.0000000E+00
 -0.5100000      0.0000000E+00
 -0.5000000      0.0000000E+00
 -0.4900000      0.0000000E+00
 -0.4800000      0.0000000E+00
 -0.4700000      0.0000000E+00
 -0.4600000      0.0000000E+00
 -0.4500000      0.0000000E+00
 -0.4400000      0.0000000E+00
 -0.4300000      0.0000000E+00
 -0.4200000      0.0000000E+00
 -0.4100000      0.0000000E+00
 -0.4000000      0.0000000E+00
 -0.3900000      0.0000000E+00
 -0.3800000      0.0000000E+00
 -0.3700000      0.0000000E+00
 -0.3600000      0.0000000E+00
 -0.3500000      0.0000000E+00
 -0.3400000      0.0000000E+00
 -0.3300000      0.0000000E+00
 -0.3200000      0.0000000E+00
 -0.3100000      0.0000000E+00
 -0.3000000      0.0000000E+00
 -0.2900000      0.0000000E+00
 -0.2800000      0.0000000E+00
 -0.2700000      0.0000000E+00
 -0.2600000      0.0000000E+00
 -0.2500000      0.0000000E+00
 -0.2400000      0.0000000E+00
 -0.2300000     -1.4006045E-38
 -0.2200000     -2.0591394E-38
 -0.2100000     -2.7389783E-38
 -0.2000000     -3.3610200E-38
 -0.1900000     -3.7804673E-38
 -0.1800000     -3.9164950E-38
 -0.1700000     -3.8452459E-38
 -0.1600000     -3.3333906E-38
 -0.1500000     -2.2629646E-38
 -0.1400000      0.0000000E+00
 -0.1300000      0.0000000E+00
 -0.1200000      3.0377497E-38
 -0.1100000      5.3079011E-38
 -0.1000000      7.8967557E-38
 -9.0000004E-02  1.0527740E-37
 -7.9999998E-02  1.2991319E-37
 -7.0000000E-02  1.5151294E-37
 -5.9999999E-02  1.6760123E-37
 -5.0000001E-02  1.7470644E-37
 -3.9999999E-02  1.7240413E-37
 -2.9999999E-02  1.6069044E-37
 -2.0000000E-02  1.4460225E-37
 -9.9999998E-03  1.2254136E-37
 -3.4694470E-17  8.9448317E-38
  9.9999998E-03  4.6506775E-38
  2.0000000E-02  0.0000000E+00
  2.9999999E-02 -5.7303528E-38
  3.9999999E-02 -1.4575911E-37
  5.0000001E-02 -2.8019833E-37
  5.9999999E-02 -4.4700686E-37
  7.0000000E-02 -6.3928550E-37
  7.9999998E-02 -8.3917940E-37
  9.0000004E-02 -1.0344013E-36
  0.1000000     -1.2736305E-36
  0.1100000     -1.5081311E-36
  0.1200000     -1.6279528E-36
  0.1300000     -1.6629611E-36
  0.1400000     -1.6216583E-36
  0.1500000     -1.4990439E-36
  0.1600000     -1.2587702E-36
  0.1700000     -8.2407919E-37
  0.1800000     -2.9993612E-37
  0.1900000      2.7851267E-37
  0.2000000      1.0707039E-36
  0.2100000      2.1857826E-36
  0.2200000      3.5627265E-36
  0.2300000      4.8961503E-36
  0.2400000      6.1337918E-36
  0.2500000      7.4024647E-36
  0.2600000      8.5628457E-36
  0.2700000      9.3726360E-36
  0.2800000      9.6489188E-36
  0.2900000      9.3228885E-36
  0.3000000      8.1986089E-36
  0.3100000      6.1030133E-36
  0.3200000      2.6836592E-36
  0.3300000     -2.2841301E-36
  0.3400000     -8.9054768E-36
  0.3500000     -1.7531088E-35
  0.3600000     -2.8385514E-35
  0.3700000     -4.1710764E-35
  0.3800000     -5.7661373E-35
  0.3900000     -7.6200744E-35
  0.4000000     -9.7614291E-35
  0.4100000     -1.2238344E-34
  0.4200000     -1.5045489E-34
  0.4300000     -1.8348466E-34
  0.4400000     -2.2139713E-34
  0.4500000     -2.5931169E-34
  0.4600000     -2.9442127E-34
  0.4700000     -3.3051974E-34
  0.4800000     -3.6847863E-34
  0.4900000     -4.0741505E-34
  0.5000000     -4.4849063E-34
  0.5100000     -4.9108471E-34
  0.5200000     -5.3854374E-34
  0.5300000     -5.8967365E-34
  0.5400000     -6.4077777E-34
  0.5500000     -6.9480427E-34
  0.5600000     -7.5100346E-34
  0.5700000     -8.0444781E-34
  0.5800000     -8.5646326E-34
  0.5900000     -9.0881344E-34
  0.6000000     -9.5768158E-34
  0.6100000     -1.0014178E-33
  0.6200000     -1.0397960E-33
  0.6300000     -1.0784731E-33
  0.6400000     -1.1138667E-33
  0.6500000     -1.1406948E-33
  0.6600000     -1.1620877E-33
  0.6700000     -1.1721585E-33
  0.6800000     -1.1692759E-33
  0.6900000     -1.1540747E-33
  0.7000000     -1.1236012E-33
  0.7100000     -1.0759194E-33
  0.7200000     -1.0096652E-33
  0.7300000     -9.2260777E-34
  0.7400000     -8.1260189E-34
  0.7500000     -6.7856449E-34
  0.7600000     -5.1911621E-34
  0.7700000     -3.3321038E-34
  0.7800000     -1.1952802E-34
  0.7900000      1.2280729E-34
  0.8000000      3.9436839E-34
  0.8100000      6.9513327E-34
  0.8200000      1.0247449E-33
  0.8300000      1.3833637E-33
  0.8400000      1.7705597E-33
  0.8500000      2.1855527E-33
  0.8600000      2.6274585E-33
  0.8700000      3.0955252E-33
  0.8800000      3.5886909E-33
  0.8900000      4.1056227E-33
  0.9000000      4.6448748E-33
  0.9100000      5.2050291E-33
  0.9200000      5.7848134E-33
  0.9300000      6.3829380E-33
  0.9400000      6.9988926E-33
  0.9500000      7.6308164E-33
  0.9600000      8.2770054E-33
  0.9700000      8.9356746E-33
  0.9800000      9.6079670E-33
  0.9900000      1.0295159E-32
   1.000000      1.0995150E-32
   1.010000      1.1707559E-32
   1.020000      1.2432513E-32
   1.030000      1.3170170E-32
   1.040000      1.3920395E-32
   1.050000      1.4683354E-32
   1.060000      1.5459085E-32
   1.070000      1.6247712E-32
   1.080000      1.7049348E-32
   1.090000      1.7864453E-32
   1.100000      1.8693722E-32
   1.110000      1.9537561E-32
   1.120000      2.0396680E-32
   1.130000      2.1272194E-32
   1.140000      2.2165382E-32
   1.150000      2.3077930E-32
   1.160000      2.4012186E-32
   1.170000      2.4970962E-32
   1.180000      2.5957663E-32
   1.190000      2.6976370E-32
   1.200000      2.8031861E-32
   1.210000      2.9129599E-32
   1.220000      3.0275753E-32
   1.230000      3.1477182E-32
   1.240000      3.2741353E-32
   1.250000      3.4076247E-32
   1.260000      3.5490287E-32
   1.270000      3.6992225E-32
   1.280000      3.8590948E-32
   1.290000      4.0295356E-32
   1.300000      4.2114183E-32
   1.310000      4.4055824E-32
   1.320000      4.6128156E-32
   1.330000      4.8338423E-32
   1.340000      5.0693059E-32
   1.350000      5.3197561E-32
   1.360000      5.5856512E-32
   1.370000      5.8673472E-32
   1.380000      6.1651023E-32
   1.390000      6.4790804E-32
   1.400000      6.8093631E-32
   1.410000      7.1559682E-32
   1.420000      7.5188633E-32
   1.430000      7.8979920E-32
   1.440000      8.2932854E-32
   1.450000      8.7046926E-32
   1.460000      9.1322099E-32
   1.470000      9.5758908E-32
   1.480000      1.0035862E-31
   1.490000      1.0512341E-31
   1.500000      1.1005631E-31
   1.510000      1.1516124E-31
   1.520000      1.2044297E-31
   1.530000      1.2590692E-31
   1.540000      1.3155891E-31
   1.550000      1.3740491E-31
   1.560000      1.4345072E-31
   1.570000      1.4970156E-31
   1.580000      1.5616172E-31
   1.590000      1.6283420E-31
   1.600000      1.6972039E-31
   1.610000      1.7681969E-31
   1.620000      1.8412944E-31
   1.630000      1.9164462E-31
   1.640000      1.9935792E-31
   1.650000      2.0725976E-31
   1.660000      2.1533841E-31
   1.670000      2.2358044E-31
   1.680000      2.3197088E-31
   1.690000      2.4049378E-31
   1.700000      2.4913249E-31
   1.710000      2.5787034E-31
   1.720000      2.6669089E-31
   1.730000      2.7557838E-31
   1.740000      2.8451783E-31
   1.750000      2.9349503E-31
   1.760000      3.0249640E-31
   1.770000      3.1150852E-31
   1.780000      3.2051737E-31
   1.790000      3.2950710E-31
   1.800000      3.3845863E-31
   1.810000      3.4734805E-31
   1.820000      3.5614432E-31
   1.830000      3.6480705E-31
   1.840000      3.7328364E-31
   1.850000      3.8150672E-31
   1.860000      3.8939108E-31
   1.870000      3.9683062E-31
   1.880000      4.0369523E-31
   1.890000      4.0982807E-31
   1.900000      4.1504246E-31
   1.910000      4.1911955E-31
   1.920000      4.2180574E-31
   1.930000      4.2281084E-31
   1.940000      4.2180579E-31
   1.950000      4.1842159E-31
   1.960000      4.1224789E-31
   1.970000      4.0283195E-31
   1.980000      3.8967753E-31
   1.990000      3.7224424E-31
   2.000000      3.4994653E-31
   2.010000      3.2215276E-31
   2.020000      2.8818401E-31
   2.030000      2.4731230E-31
   2.040000      1.9875893E-31
   2.050000      1.4169162E-31
   2.060000      7.5222093E-32
   2.070000     -1.5971440E-33
   2.080000     -8.9777059E-32
   2.090000     -1.9039580E-31
   2.100000     -3.0460362E-31
   2.110000     -4.3362741E-31
   2.120000     -5.7877491E-31
   2.130000     -7.4143911E-31
   2.140000     -9.2310208E-31
   2.150000     -1.1253384E-30
   2.160000     -1.3498175E-30
   2.170000     -1.5983037E-30
   2.180000     -1.8726565E-30
   2.190000     -2.1748299E-30
   2.200000     -2.5068660E-30
   2.210000     -2.8708905E-30
   2.220000     -3.2691070E-30
   2.230000     -3.7037852E-30
   2.240000     -4.1772537E-30
   2.250000     -4.6918824E-30
   2.260000     -5.2500726E-30
   2.270000     -5.8542387E-30
   2.280000     -6.5067934E-30
   2.290000     -7.2101295E-30
   2.300000     -7.9666032E-30
   2.310000     -8.7785113E-30
   2.320000     -9.6480845E-30
   2.330000     -1.0577454E-29
   2.340000     -1.1568641E-29
   2.350000     -1.2623539E-29
   2.360000     -1.3743897E-29
   2.370000     -1.4931291E-29
   2.380000     -1.6187122E-29
   2.390000     -1.7512583E-29
   2.400000     -1.8908643E-29
   2.410000     -2.0376024E-29
   2.420000     -2.1915185E-29
   2.430000     -2.3526289E-29
   2.440000     -2.5209170E-29
   2.450000     -2.6963317E-29
   2.460000     -2.8787835E-29
   2.470000     -3.0681385E-29
   2.480000     -3.2642180E-29
   2.490000     -3.4667910E-29
   2.500000     -3.6755720E-29
   2.510000     -3.8902151E-29
   2.520000     -4.1103086E-29
   2.530000     -4.3353694E-29
   2.540000     -4.5648392E-29
   2.550000     -4.7980792E-29
   2.560000     -5.0343643E-29
   2.570000     -5.2728796E-29
   2.580000     -5.5127139E-29
   2.590000     -5.7528587E-29
   2.600000     -5.9922042E-29
   2.610000     -6.2295366E-29
   2.620000     -6.4635340E-29
   2.630000     -6.6927703E-29
   2.640000     -6.9157087E-29
   2.650000     -7.1307069E-29
   2.660000     -7.3360170E-29
   2.670000     -7.5297854E-29
   2.680000     -7.7100591E-29
   2.690000     -7.8747839E-29
   2.700000     -8.0218112E-29
   2.710000     -8.1489009E-29
   2.720000     -8.2537275E-29
   2.730000     -8.3338829E-29
   2.740000     -8.3868814E-29
   2.750000     -8.4101683E-29
   2.760000     -8.4011225E-29
   2.770000     -8.3570668E-29
   2.780000     -8.2752702E-29
   2.790000     -8.1529592E-29
   2.800000     -7.9873238E-29
   2.810000     -7.7755317E-29
   2.820000     -7.5147325E-29
   2.830000     -7.2020734E-29
   2.840000     -6.8347077E-29
   2.850000     -6.4098156E-29
   2.860000     -5.9246173E-29
   2.870000     -5.3763887E-29
   2.880000     -4.7624838E-29
   2.890000     -4.0803567E-29
   2.900000     -3.3275823E-29
   2.910000     -2.5018825E-29
   2.920000     -1.6011489E-29
   2.930000     -6.2347780E-30
   2.940000      4.3280795E-30
   2.950000      1.5691320E-29
   2.960000      2.7866316E-29
   2.970000      4.0861282E-29
   2.980000      5.4681003E-29
   2.990000      6.9326563E-29
   3.000000      8.4795157E-29
   3.010000      1.0107971E-28
   3.020000      1.1816875E-28
   3.030000      1.3604616E-28
   3.040000      1.5469107E-28
   3.050000      1.7407767E-28
   3.060000      1.9417511E-28
   3.070000      2.1494736E-28
   3.080000      2.3635325E-28
   3.090000      2.5834629E-28
   3.100000      2.8087485E-28
   3.110000      3.0388209E-28
   3.120000      3.2730606E-28
   3.130000      3.5107970E-28
   3.140000      3.7513117E-28
   3.150000      3.9938385E-28
   3.160000      4.2375649E-28
   3.170000      4.4816361E-28
   3.180000      4.7251555E-28
   3.190000      4.9671895E-28
   3.200000      5.2067713E-28
   3.210000      5.4429048E-28
   3.220000      5.6745672E-28
   3.230000      5.9007186E-28
   3.240000      6.1203044E-28
   3.250000      6.3322646E-28
   3.260000      6.5355407E-28
   3.270000      6.7290846E-28
   3.280000      6.9118689E-28
   3.290000      7.0828958E-28
   3.300000      7.2412091E-28
   3.310000      7.3859086E-28
   3.320000      7.5161588E-28
   3.330000      7.6312071E-28
   3.340000      7.7303973E-28
   3.350000      7.8131824E-28
   3.360000      7.8791436E-28
   3.370000      7.9280030E-28
   3.380000      7.9596422E-28
   3.390000      7.9741179E-28
   3.400000      7.9716759E-28
   3.410000      7.9527719E-28
   3.420000      7.9180811E-28
   3.430000      7.8685153E-28
   3.440000      7.8052341E-28
   3.450000      7.7296640E-28
   3.460000      7.6435041E-28
   3.470000      7.5487378E-28
   3.480000      7.4476467E-28
   3.490000      7.3428097E-28
   3.500000      7.2371161E-28
   3.510000      7.1337687E-28
   3.520000      7.0362844E-28
   3.530000      6.9484933E-28
   3.540000      6.8745439E-28
   3.550000      6.8188850E-28
   3.560000      6.7862689E-28
   3.570000      6.7817482E-28
   3.580000      6.8106478E-28
   3.590000      6.8785532E-28
   3.600000      6.9912899E-28
   3.610000      7.1549000E-28
   3.620000      7.3756203E-28
   3.630000      7.6598346E-28
   3.640000      8.0140410E-28
   3.650000      8.4448109E-28
   3.660000      8.9587280E-28
   3.670000      9.5623452E-28
   3.680000      1.0262117E-27
   3.690000      1.1064325E-27
   3.700000      1.1974995E-27
   3.710000      1.2999823E-27
   3.720000      1.4144087E-27
   3.730000      1.5412543E-27
   3.740000      1.6809309E-27
   3.750000      1.8337763E-27
   3.760000      2.0000432E-27
   3.770000      2.1798850E-27
   3.780000      2.3733435E-27
   3.790000      2.5803336E-27
   3.800000      2.8006309E-27
   3.810000      3.0338560E-27
   3.820000      3.2794589E-27
   3.830000      3.5367015E-27
   3.840000      3.8046457E-27
   3.850000      4.0821322E-27
   3.860000      4.3677680E-27
   3.870000      4.6599081E-27
   3.880000      4.9566369E-27
   3.890000      5.2557561E-27
   3.900000      5.5547629E-27
   3.910000      5.8508369E-27
   3.920000      6.1408238E-27
   3.930000      6.4212188E-27
   3.940000      6.6881523E-27
   3.950000      6.9373753E-27
   3.960000      7.1642445E-27
   3.970000      7.3637123E-27
   3.980000      7.5303152E-27
   3.990000      7.6581615E-27
   4.000000      7.7409272E-27
   4.010000      7.7718453E-27
   4.020000      7.7437036E-27
   4.030000      7.6488462E-27
   4.040000      7.4791648E-27
   4.050000      7.2261146E-27
   4.060000      6.8807129E-27
   4.070000      6.4335509E-27
   4.080000      5.8748078E-27
   4.090000      5.1942716E-27
   4.100000      4.3813585E-27
   4.110000      3.4251435E-27
   4.120000      2.3143842E-27
   4.130000      1.0375571E-27
   4.140000     -4.1708608E-28
   4.150000     -2.0614798E-27
   4.160000     -3.9076884E-27
   4.170000     -5.9678475E-27
   4.180000     -8.2540982E-27
   4.190000     -1.0778515E-26
   4.200000     -1.3553016E-26
   4.210000     -1.6589287E-26
   4.220000     -1.9898693E-26
   4.230000     -2.3492176E-26
   4.240000     -2.7380120E-26
   4.250000     -3.1572260E-26
   4.260000     -3.6077571E-26
   4.270000     -4.0904120E-26
   4.280000     -4.6058904E-26
   4.290000     -5.1547737E-26
   4.300000     -5.7375099E-26
   4.310000     -6.3543966E-26
   4.320000     -7.0055631E-26
   4.330000     -7.6909538E-26
   4.340000     -8.4103087E-26
   4.350000     -9.1631457E-26
   4.360000     -9.9487427E-26
   4.370000     -1.0766115E-25
   4.380000     -1.1613992E-25
   4.390000     -1.2490804E-25
   4.400000     -1.3394649E-25
   4.410000     -1.4323282E-25
   4.420000     -1.5274086E-25
   4.430000     -1.6244051E-25
   4.440000     -1.7229751E-25
   4.450000     -1.8227326E-25
   4.460000     -1.9232455E-25
   4.470000     -2.0240331E-25
   4.480000     -2.1245644E-25
   4.490000     -2.2242569E-25
   4.500000     -2.3224728E-25
   4.510000     -2.4185176E-25
   4.520000     -2.5116397E-25
   4.530000     -2.6010265E-25
   4.540000     -2.6858042E-25
   4.550000     -2.7650364E-25
   4.560000     -2.8377222E-25
   4.570000     -2.9027969E-25
   4.580000     -2.9591282E-25
   4.590000     -3.0055189E-25
   4.600000     -3.0407050E-25
   4.610000     -3.0633555E-25
   4.620000     -3.0720738E-25
   4.630000     -3.0653984E-25
   4.640000     -3.0418025E-25
   4.650000     -2.9996981E-25
   4.660000     -2.9374355E-25
   4.670000     -2.8533082E-25
   4.680000     -2.7455540E-25
   4.690000     -2.6123592E-25
   4.700000     -2.4518635E-25
   4.710000     -2.2621622E-25
   4.720000     -2.0413138E-25
   4.730000     -1.7873454E-25
   4.740000     -1.4982591E-25
   4.750000     -1.1720395E-25
   4.760000     -8.0666235E-26
   4.770000     -4.0010147E-26
   4.780000      4.9660450E-27
   4.790000      5.4462039E-26
   4.800000      1.0867424E-25
   4.810000      1.6779495E-25
   4.820000      2.3201119E-25
   4.830000      3.0150261E-25
   4.840000      3.7644050E-25
   4.850000      4.5698623E-25
   4.860000      5.4328944E-25
   4.870000      6.3548623E-25
   4.880000      7.3369729E-25
   4.890000      8.3802617E-25
   4.900000      9.4855732E-25
   4.910000      1.0653536E-24
   4.920000      1.1884546E-24
   4.930000      1.3178735E-24
   4.940000      1.4535957E-24
   4.950000      1.5955759E-24
   4.960000      1.7437356E-24
   4.970000      1.8979603E-24
   4.980000      2.0580977E-24
   4.990000      2.2239533E-24
   5.000000      2.3952894E-24
   5.010000      2.5718216E-24
   5.020000      2.7532159E-24
   5.030000      2.9390857E-24
   5.040000      3.1289896E-24
   5.050000      3.3224277E-24
   5.060000      3.5188391E-24
   5.070000      3.7175989E-24
   5.080000      3.9180157E-24
   5.090000      4.1193295E-24
   5.100000      4.3207064E-24
   5.110000      4.5212399E-24
   5.120000      4.7199453E-24
   5.130000      4.9157579E-24
   5.140000      5.1075324E-24
   5.150000      5.2940380E-24
   5.160000      5.4739595E-24
   5.170000      5.6458949E-24
   5.180000      5.8083529E-24
   5.190000      5.9597507E-24
   5.200000      6.0984166E-24
   5.210000      6.2225869E-24
   5.220000      6.3304068E-24
   5.230000      6.4199295E-24
   5.240000      6.4891166E-24
   5.250000      6.5358412E-24
   5.260000      6.5578883E-24
   5.270000      6.5529547E-24
   5.280000      6.5186543E-24
   5.290000      6.4525201E-24
   5.300000      6.3520078E-24
   5.310000      6.2145011E-24
   5.320000      6.0373126E-24
   5.330000      5.8176946E-24
   5.340000      5.5528420E-24
   5.350000      5.2399009E-24
   5.360000      4.8759753E-24
   5.370000      4.4581366E-24
   5.380000      3.9834340E-24
   5.390000      3.4489042E-24
   5.400000      2.8515789E-24
   5.410000      2.1885027E-24
   5.420000      1.4567446E-24
   5.430000      6.5341206E-25
   5.440000     -2.2433370E-25
   5.450000     -1.1792654E-24
   5.460000     -2.2140707E-24
   5.470000     -3.3313261E-24
   5.480000     -4.5334866E-24
   5.490000     -5.8228620E-24
   5.500000     -7.2015956E-24
   5.510000     -8.6716458E-24
   5.520000     -1.0234760E-23
   5.530000     -1.1892447E-23
   5.540000     -1.3645951E-23
   5.550000     -1.5496229E-23
   5.560000     -1.7443922E-23
   5.570000     -1.9489329E-23
   5.580000     -2.1632373E-23
   5.590000     -2.3872572E-23
   5.600000     -2.6209012E-23
   5.610000     -2.8640311E-23
   5.620000     -3.1164584E-23
   5.630000     -3.3779415E-23
   5.640000     -3.6481822E-23
   5.650000     -3.9268224E-23
   5.660000     -4.2134411E-23
   5.670000     -4.5075496E-23
   5.680000     -4.8085887E-23
   5.690000     -5.1159261E-23
   5.700000     -5.4288524E-23
   5.710000     -5.7465772E-23
   5.720000     -6.0682267E-23
   5.730000     -6.3928392E-23
   5.740000     -6.7193619E-23
   5.750000     -7.0466502E-23
   5.760000     -7.3734621E-23
   5.770000     -7.6984557E-23
   5.780000     -8.0201892E-23
   5.790000     -8.3371137E-23
   5.800000     -8.6475759E-23
   5.810000     -8.9498131E-23
   5.820000     -9.2419536E-23
   5.830000     -9.5220112E-23
   5.840000     -9.7878889E-23
   5.850000     -1.0037376E-22
   5.860000     -1.0268148E-22
   5.870000     -1.0477767E-22
   5.880000     -1.0663679E-22
   5.890000     -1.0823220E-22
   5.900000     -1.0953615E-22
   5.910000     -1.1051980E-22
   5.920000     -1.1115324E-22
   5.930000     -1.1140554E-22
   5.940000     -1.1124476E-22
   5.950000     -1.1063803E-22
   5.960000     -1.0955156E-22
   5.970000     -1.0795077E-22
   5.980000     -1.0580027E-22
   5.990000     -1.0306401E-22
   6.000000     -9.9705323E-23
   6.010000     -9.5687004E-23
   6.020000     -9.0971477E-23
   6.030000     -8.5520840E-23
   6.040000     -7.9297024E-23
   6.050000     -7.2261906E-23
   6.060000     -6.4377474E-23
   6.070000     -5.5605928E-23
   6.080000     -4.5909865E-23
   6.090000     -3.5252521E-23
   6.100000     -2.3597920E-23
   6.110000     -1.0910985E-23
   6.120000      2.8422209E-24
   6.130000      1.7694199E-23
   6.140000      3.3675809E-23
   6.150000      5.0816107E-23
   6.160000      6.9142081E-23
   6.170000      8.8678246E-23
   6.180000      1.0944659E-22
   6.190000      1.3146612E-22
   6.200000      1.5475261E-22
   6.210000      1.7931837E-22
   6.220000      2.0517179E-22
   6.230000      2.3231714E-22
   6.240000      2.6075432E-22
   6.250000      2.9047825E-22
   6.260000      3.2147877E-22
   6.270000      3.5374020E-22
   6.280000      3.8724091E-22
   6.290000      4.2195317E-22
   6.300000      4.5784250E-22
   6.310000      4.9486757E-22
   6.320000      5.3297962E-22
   6.330000      5.7212212E-22
   6.340000      6.1223068E-22
   6.350000      6.5323237E-22
   6.360000      6.9504538E-22
   6.370000      7.3757869E-22
   6.380000      7.8073193E-22
   6.390000      8.2439468E-22
   6.400000      8.6844644E-22
   6.410000      9.1275624E-22
   6.420000      9.5718247E-22
   6.430000      1.0015719E-21
   6.440000      1.0457606E-21
   6.450000      1.0895724E-21
   6.460000      1.1328199E-21
   6.470000      1.1753034E-21
   6.480000      1.2168111E-21
   6.490000      1.2571188E-21
   6.500000      1.2959906E-21
   6.510000      1.3331772E-21
   6.520000      1.3684174E-21
   6.530000      1.4014379E-21
   6.540000      1.4319524E-21
   6.550000      1.4596628E-21
   6.560000      1.4842591E-21
   6.570000      1.5054194E-21
   6.580000      1.5228106E-21
   6.590000      1.5360885E-21
   6.600000      1.5448979E-21
   6.610000      1.5488738E-21
   6.620000      1.5476415E-21
   6.630000      1.5408174E-21
   6.640000      1.5280096E-21
   6.650000      1.5088188E-21
   6.660000      1.4828394E-21
   6.670000      1.4496598E-21
   6.680000      1.4088647E-21
   6.690000      1.3600350E-21
   6.700000      1.3027493E-21
   6.710000      1.2365861E-21
   6.720000      1.1611244E-21
   6.730000      1.0759448E-21
   6.740000      9.8063241E-22
   6.750000      8.7477833E-22
   6.760000      7.5798047E-22
   6.770000      6.2984634E-22
   6.780000      4.8999556E-22
   6.790000      3.3806062E-22
   6.800000      1.7369035E-22
   6.810000     -3.4484518E-24
   6.820000     -1.9366831E-22
   6.830000     -3.9725776E-22
   6.840000     -6.1447998E-22
   6.850000     -8.4556912E-22
   6.860000     -1.0907283E-21
   6.870000     -1.3501260E-21
   6.880000     -1.6238931E-21
   6.890000     -1.9121197E-21
   6.900000     -2.2148522E-21
   6.910000     -2.5320895E-21
   6.920000     -2.8637819E-21
   6.930000     -3.2098251E-21
   6.940000     -3.5700582E-21
   6.950000     -3.9442601E-21
   6.960000     -4.3321448E-21
   6.970000     -4.7333605E-21
   6.980000     -5.1474848E-21
   6.990000     -5.5740204E-21
   7.000000     -6.0123926E-21
   7.010000     -6.4619467E-21
   7.020000     -6.9219419E-21
   7.030000     -7.3915527E-21
   7.040000     -7.8698610E-21
   7.050000     -8.3558554E-21
   7.060000     -8.8484269E-21