  -2.600000      0.0000000E+00
  -2.590000      0.0000000E+00
  -2.580000      0.0000000E+00
  -2.570000      0.0000000E+00
  -2.560000      0.0000000E+00
  -2.550000      0.0000000E+00
  -2.540000      0.0000000E+00
  -2.530000      0.0000000E+00
  -2.520000      0.0000000E+00
  -2.510000      0.0000000E+00
  -2.500000      0.0000000E+00
  -2.490000      0.0000000E+00
  -2.480000      0.0000000E+00
  -2.470000      0.0000000E+00
  -2.460000      0.0000000E+00
  -2.450000      0.0000000E+00
  -2.440000      0.0000000E+00
  -2.430000      0.0000000E+00
  -2.420000      0.0000000E+00
  -2.410000      0.0000000E+00
  -2.400000      0.0000000E+00
  -2.390000      0.0000000E+00
  -2.380000      0.0000000E+00
  -2.370000      0.0000000E+00
  -2.360000      0.0000000E+00
  -2.350000      0.0000000E+00
  -2.340000      0.0000000E+00
  -2.330000      0.0000000E+00
  -2.320000      0.0000000E+00
  -2.310000      0.0000000E+00
  -2.300000      0.0000000E+00
  -2.290000      0.0000000E+00
  -2.280000      0.0000000E+00
  -2.270000      0.0000000E+00
  -2.260000      0.0000000E+00
  -2.250000      0.0000000E+00
  -2.240000      0.0000000E+00
  -2.230000      0.0000000E+00
  -2.220000      0.0000000E+00
  -2.210000      0.0000000E+00
  -2.200000      0.0000000E+00
  -2.190000      0.0000000E+00
  -2.180000      0.0000000E+00
  -2.170000      0.0000000E+00
  -2.160000      0.0000000E+00
  -2.150000      0.0000000E+00
  -2.140000      0.0000000E+00
  -2.130000      0.0000000E+00
  -2.120000      0.0000000E+00
  -2.110000      0.0000000E+00
  -2.100000      0.0000000E+00
  -2.090000      0.0000000E+00
  -2.080000      0.0000000E+00
  -2.070000      0.0000000E+00
  -2.060000      0.0000000E+00
  -2.050000      0.0000000E+00
  -2.040000      0.0000000E+00
  -2.030000      0.0000000E+00
  -2.020000      0.0000000E+00
  -2.010000      0.0000000E+00
  -2.000000      0.0000000E+00
  -1.990000      0.0000000E+00
  -1.980000      0.0000000E+00
  -1.970000      0.0000000E+00
  -1.960000      0.0000000E+00
  -1.950000      0.0000000E+00
  -1.940000      0.0000000E+00
  -1.930000      0.0000000E+00
  -1.920000      0.0000000E+00
  -1.910000      0.0000000E+00
  -1.900000      0.0000000E+00
  -1.890000      0.0000000E+00
  -1.880000      0.0000000E+00
  -1.870000      0.0000000E+00
  -1.860000      0.0000000E+00
  -1.850000      0.0000000E+00
  -1.840000      0.0000000E+00
  -1.830000      0.0000000E+00
  -1.820000      0.0000000E+00
  -1.810000      0.0000000E+00
  -1.800000      0.0000000E+00
  -1.790000      0.0000000E+00
  -1.780000      0.0000000E+00
  -1.770000      0.0000000E+00
  -1.760000      0.0000000E+00
  -1.750000      0.0000000E+00
  -1.740000      0.0000000E+00
  -1.730000      0.0000000E+00
  -1.720000      0.0000000E+00
  -1.710000      0.0000000E+00
  -1.700000      0.0000000E+00
  -1.690000      0.0000000E+00
  -1.680000      0.0000000E+00
  -1.670000      0.0000000E+00
  -1.660000      0.0000000E+00
  -1.650000      0.0000000E+00
  -1.640000      0.0000000E+00
  -1.630000      0.0000000E+00
  -1.620000      0.0000000E+00
  -1.610000      0.0000000E+00
  -1.600000      0.0000000E+00
  -1.590000      0.0000000E+00
  -1.580000      0.0000000E+00
  -1.570000      0.0000000E+00
  -1.560000      0.0000000E+00
  -1.550000      0.0000000E+00
  -1.540000      0.0000000E+00
  -1.530000      0.0000000E+00
  -1.520000      0.0000000E+00
  -1.510000      0.0000000E+00
  -1.500000      0.0000000E+00
  -1.490000      0.0000000E+00
  -1.480000      0.0000000E+00
  -1.470000      0.0000000E+00
  -1.460000      0.0000000E+00
  -1.450000      0.0000000E+00
  -1.440000      0.0000000E+00
  -1.430000      0.0000000E+00
  -1.420000      0.0000000E+00
  -1.410000      0.0000000E+00
  -1.400000      0.0000000E+00
  -1.390000      0.0000000E+00
  -1.380000      0.0000000E+00
  -1.370000      0.0000000E+00
  -1.360000      0.0000000E+00
  -1.350000      0.0000000E+00
  -1.340000      0.0000000E+00
  -1.330000      0.0000000E+00
  -1.320000      0.0000000E+00
  -1.310000      0.0000000E+00
  -1.300000      0.0000000E+00
  -1.290000      0.0000000E+00
  -1.280000      0.0000000E+00
  -1.270000      0.0000000E+00
  -1.260000      0.0000000E+00
  -1.250000      0.0000000E+00
  -1.240000      0.0000000E+00
  -1.230000      0.0000000E+00
  -1.220000      0.0000000E+00
  -1.210000      0.0000000E+00
  -1.200000      0.0000000E+00
  -1.190000      0.0000000E+00
  -1.180000      0.0000000E+00
  -1.170000      0.0000000E+00
  -1.160000      0.0000000E+00
  -1.150000      0.0000000E+00
  -1.140000      0.0000000E+00
  -1.130000      0.0000000E+00
  -1.120000      0.0000000E+00
  -1.110000      0.0000000E+00
  -1.100000      0.0000000E+00
  -1.090000      0.0000000E+00
  -1.080000      0.0000000E+00
  -1.070000      0.0000000E+00
  -1.060000      0.0000000E+00
  -1.050000      0.0000000E+00
  -1.040000      0.0000000E+00
  -1.030000      0.0000000E+00
  -1.020000      0.0000000E+00
  -1.010000      0.0000000E+00
  -1.000000      0.0000000E+00
 -0.9900000      0.0000000E+00
 -0.9800000      0.0000000E+00
 -0.9700000      0.0000000E+00
 -0.9600000      0.0000000E+00
 -0.9500000      0.0000000E+00
 -0.9400000      0.0000000E+00
 -0.9300000      0.0000000E+00
 -0.9200000      0.0000000E+00
 -0.9100000      0.0000000E+00
 -0.9000000      0.0000000E+00
 -0.8900000      0.0000000E+00
 -0.8800000      0.0000000E+00
 -0.8700000      0.0000000E+00
 -0.8600000      0.0000000E+00
 -0.8500000      0.0000000E+00
 -0.8400000      0.0000000E+00
 -0.8300000      0.0000000E+00
 -0.8200000      0.0000000E+00
 -0.8100000      0.0000000E+00
 -0.8000000      0.0000000E+00
 -0.7900000      0.0000000E+00
 -0.7800000      0.0000000E+00
 -0.7700000      0.0000000E+00
 -0.7600000      0.0000000E+00
 -0.7500000      0.0000000E+00
 -0.7400000      0.0000000E+00
 -0.7300000      0.0000000E+00
 -0.7200000      0.0000000E+00
 -0.7100000      0.0000000E+00
 -0.7000000      0.0000000E+00
 -0.6900000      0.0000000E+00
 -0.6800000      0.0000000E+00
 -0.6700000      0.0000000E+00
 -0.6600000      0.0000000E+00
 -0.6500000      0.0000000E+00
 -0.6400000      0.0000000E+00
 -0.6300000      0.0000000E+00
 -0.6200000      0.0000000E+00
 -0.6100000      0.0000000E+00
 -0.6000000      0.0000000E+00
 -0.5900000      0.0000000E+00
 -0.5800000      0.0000000E+00
 -0.5700000      0.0000000E+00
 -0.5600000      0.0000000E+00
 -0.5500000      0.0000000E+00
 -0.5400000      0.0000000E+00
 -0.5300000      0.0000000E+00
 -0.5200000      0.0000000E+00
 -0.5100000      0.0000000E+00
 -0.5000000      0.0000000E+00
 -0.4900000      0.0000000E+00
 -0.4800000      0.0000000E+00
 -0.4700000      0.0000000E+00
 -0.4600000      0.0000000E+00
 -0.4500000      0.0000000E+00
 -0.4400000      0.0000000E+00
 -0.4300000      0.0000000E+00
 -0.4200000      0.0000000E+00
 -0.4100000      0.0000000E+00
 -0.4000000      0.0000000E+00
 -0.3900000      0.0000000E+00
 -0.3800000      0.0000000E+00
 -0.3700000      0.0000000E+00
 -0.3600000      0.0000000E+00
 -0.3500000      0.0000000E+00
 -0.3400000      0.0000000E+00
 -0.3300000      0.0000000E+00
 -0.3200000      0.0000000E+00
 -0.3100000      0.0000000E+00
 -0.3000000      0.0000000E+00
 -0.2900000      0.0000000E+00
 -0.2800000      0.0000000E+00
 -0.2700000      0.0000000E+00
 -0.2600000      0.0000000E+00
 -0.2500000      0.0000000E+00
 -0.2400000      0.0000000E+00
 -0.2300000      0.0000000E+00
 -0.2200000      0.0000000E+00
 -0.2100000      0.0000000E+00
 -0.2000000      0.0000000E+00
 -0.1900000      0.0000000E+00
 -0.1800000      0.0000000E+00
 -0.1700000      0.0000000E+00
 -0.1600000      0.0000000E+00
 -0.1500000      0.0000000E+00
 -0.1400000      0.0000000E+00
 -0.1300000      0.0000000E+00
 -0.1200000      0.0000000E+00
 -0.1100000      0.0000000E+00
 -0.1000000      0.0000000E+00
 -9.0000004E-02  0.0000000E+00
 -7.9999998E-02  0.0000000E+00
 -7.0000000E-02  0.0000000E+00
 -5.9999999E-02  0.0000000E+00
 -5.0000001E-02  0.0000000E+00
 -3.9999999E-02  0.0000000E+00
 -2.9999999E-02  0.0000000E+00
 -2.0000000E-02  0.0000000E+00
 -9.9999998E-03  0.0000000E+00
 -3.4694470E-17  0.0000000E+00
  9.9999998E-03  0.0000000E+00
  2.0000000E-02  0.0000000E+00
  2.9999999E-02  0.0000000E+00
  3.9999999E-02  0.0000000E+00
  5.0000001E-02  0.0000000E+00
  5.9999999E-02  0.0000000E+00
  7.0000000E-02  0.0000000E+00
  7.9999998E-02  0.0000000E+00
  9.0000004E-02  0.0000000E+00
  0.1000000      0.0000000E+00
  0.1100000      0.0000000E+00
  0.1200000      0.0000000E+00
  0.1300000      0.0000000E+00
  0.1400000      0.0000000E+00
  0.1500000      0.0000000E+00
  0.1600000      0.0000000E+00
  0.1700000      0.0000000E+00
  0.1800000      0.0000000E+00
  0.1900000      0.0000000E+00
  0.2000000      0.0000000E+00
  0.2100000      0.0000000E+00
  0.2200000      0.0000000E+00
  0.2300000      0.0000000E+00
  0.2400000      0.0000000E+00
  0.2500000      0.0000000E+00
  0.2600000      0.0000000E+00
  0.2700000      0.0000000E+00
  0.2800000      0.0000000E+00
  0.2900000      0.0000000E+00
  0.3000000      0.0000000E+00
  0.3100000      0.0000000E+00
  0.3200000      0.0000000E+00
  0.3300000      0.0000000E+00
  0.3400000      0.0000000E+00
  0.3500000      0.0000000E+00
  0.3600000      0.0000000E+00
  0.3700000      0.0000000E+00
  0.3800000      0.0000000E+00
  0.3900000      0.0000000E+00
  0.4000000      0.0000000E+00
  0.4100000      0.0000000E+00
  0.4200000      0.0000000E+00
  0.4300000      0.0000000E+00
  0.4400000      0.0000000E+00
  0.4500000      0.0000000E+00
  0.4600000      0.0000000E+00
  0.4700000      0.0000000E+00
  0.4800000      0.0000000E+00
  0.4900000      0.0000000E+00
  0.5000000      0.0000000E+00
  0.5100000      0.0000000E+00
  0.5200000      0.0000000E+00
  0.5300000      0.0000000E+00
  0.5400000      0.0000000E+00
  0.5500000      0.0000000E+00
  0.5600000      0.0000000E+00
  0.5700000      0.0000000E+00
  0.5800000      0.0000000E+00
  0.5900000      0.0000000E+00
  0.6000000      0.0000000E+00
  0.6100000      0.0000000E+00
  0.6200000      0.0000000E+00
  0.6300000      0.0000000E+00
  0.6400000      0.0000000E+00
  0.6500000      0.0000000E+00
  0.6600000      0.0000000E+00
  0.6700000      0.0000000E+00
  0.6800000      0.0000000E+00
  0.6900000      0.0000000E+00
  0.7000000      0.0000000E+00
  0.7100000      0.0000000E+00
  0.7200000      0.0000000E+00
  0.7300000      0.0000000E+00
  0.7400000      0.0000000E+00
  0.7500000      0.0000000E+00
  0.7600000      0.0000000E+00
  0.7700000      0.0000000E+00
  0.7800000      0.0000000E+00
  0.7900000      0.0000000E+00
  0.8000000      0.0000000E+00
  0.8100000      0.0000000E+00
  0.8200000      0.0000000E+00
  0.8300000      0.0000000E+00
  0.8400000      0.0000000E+00
  0.8500000      0.0000000E+00
  0.8600000      0.0000000E+00
  0.8700000      0.0000000E+00
  0.8800000      0.0000000E+00
  0.8900000      0.0000000E+00
  0.9000000      0.0000000E+00
  0.9100000      0.0000000E+00
  0.9200000      0.0000000E+00
  0.9300000      0.0000000E+00
  0.9400000      0.0000000E+00
  0.9500000      0.0000000E+00
  0.9600000      0.0000000E+00
  0.9700000      0.0000000E+00
  0.9800000      0.0000000E+00
  0.9900000      0.0000000E+00
   1.000000      0.0000000E+00
   1.010000      0.0000000E+00
   1.020000      0.0000000E+00
   1.030000      0.0000000E+00
   1.040000      0.0000000E+00
   1.050000      0.0000000E+00
   1.060000      0.0000000E+00
   1.070000      0.0000000E+00
   1.080000      0.0000000E+00
   1.090000      0.0000000E+00
   1.100000      0.0000000E+00
   1.110000      0.0000000E+00
   1.120000      0.0000000E+00
   1.130000      0.0000000E+00
   1.140000      0.0000000E+00
   1.150000      0.0000000E+00
   1.160000      0.0000000E+00
   1.170000      0.0000000E+00
   1.180000      0.0000000E+00
   1.190000      0.0000000E+00
   1.200000      0.0000000E+00
   1.210000      0.0000000E+00
   1.220000      0.0000000E+00
   1.230000      0.0000000E+00
   1.240000      0.0000000E+00
   1.250000      0.0000000E+00
   1.260000      0.0000000E+00
   1.270000      0.0000000E+00
   1.280000      0.0000000E+00
   1.290000      0.0000000E+00
   1.300000      0.0000000E+00
   1.310000      0.0000000E+00
   1.320000      0.0000000E+00
   1.330000      0.0000000E+00
   1.340000      0.0000000E+00
   1.350000      0.0000000E+00
   1.360000      0.0000000E+00
   1.370000      0.0000000E+00
   1.380000      0.0000000E+00
   1.390000      0.0000000E+00
   1.400000      0.0000000E+00
   1.410000      0.0000000E+00
   1.420000      0.0000000E+00
   1.430000      0.0000000E+00
   1.440000      0.0000000E+00
   1.450000      0.0000000E+00
   1.460000      0.0000000E+00
   1.470000      0.0000000E+00
   1.480000      0.0000000E+00
   1.490000      0.0000000E+00
   1.500000      0.0000000E+00
   1.510000      0.0000000E+00
   1.520000      0.0000000E+00
   1.530000      0.0000000E+00
   1.540000      0.0000000E+00
   1.550000      0.0000000E+00
   1.560000      0.0000000E+00
   1.570000      0.0000000E+00
   1.580000      0.0000000E+00
   1.590000      0.0000000E+00
   1.600000      0.0000000E+00
   1.610000      0.0000000E+00
   1.620000      0.0000000E+00
   1.630000      0.0000000E+00
   1.640000      0.0000000E+00
   1.650000      0.0000000E+00
   1.660000      0.0000000E+00
   1.670000      0.0000000E+00
   1.680000      0.0000000E+00
   1.690000      0.0000000E+00
   1.700000      0.0000000E+00
   1.710000      0.0000000E+00
   1.720000      0.0000000E+00
   1.730000      0.0000000E+00
   1.740000      0.0000000E+00
   1.750000      0.0000000E+00
   1.760000      0.0000000E+00
   1.770000      0.0000000E+00
   1.780000      0.0000000E+00
   1.790000      0.0000000E+00
   1.800000      0.0000000E+00
   1.810000      0.0000000E+00
   1.820000      0.0000000E+00
   1.830000      0.0000000E+00
   1.840000      0.0000000E+00
   1.850000      0.0000000E+00
   1.860000      0.0000000E+00
   1.870000      0.0000000E+00
   1.880000      0.0000000E+00
   1.890000      0.0000000E+00
   1.900000      0.0000000E+00
   1.910000      0.0000000E+00
   1.920000      0.0000000E+00
   1.930000      0.0000000E+00
   1.940000      0.0000000E+00
   1.950000      0.0000000E+00
   1.960000      0.0000000E+00
   1.970000      0.0000000E+00
   1.980000      0.0000000E+00
   1.990000      0.0000000E+00
   2.000000      0.0000000E+00
   2.010000      0.0000000E+00
   2.020000      0.0000000E+00
   2.030000      0.0000000E+00
   2.040000      0.0000000E+00
   2.050000      0.0000000E+00
   2.060000      0.0000000E+00
   2.070000      0.0000000E+00
   2.080000      0.0000000E+00
   2.090000      0.0000000E+00
   2.100000      0.0000000E+00
   2.110000      0.0000000E+00
   2.120000      0.0000000E+00
   2.130000      0.0000000E+00
   2.140000      0.0000000E+00
   2.150000      0.0000000E+00
   2.160000      0.0000000E+00
   2.170000      0.0000000E+00
   2.180000      0.0000000E+00
   2.190000      0.0000000E+00
   2.200000      0.0000000E+00
   2.210000      0.0000000E+00
   2.220000      0.0000000E+00
   2.230000      0.0000000E+00
   2.240000      0.0000000E+00
   2.250000      0.0000000E+00
   2.260000      0.0000000E+00
   2.270000      0.0000000E+00
   2.280000      0.0000000E+00
   2.290000      0.0000000E+00
   2.300000      0.0000000E+00
   2.310000      0.0000000E+00
   2.320000      0.0000000E+00
   2.330000      0.0000000E+00
   2.340000      0.0000000E+00
   2.350000      0.0000000E+00
   2.360000      0.0000000E+00
   2.370000      0.0000000E+00
   2.380000      0.0000000E+00
   2.390000      0.0000000E+00
   2.400000      0.0000000E+00
   2.410000      0.0000000E+00
   2.420000      0.0000000E+00
   2.430000      0.0000000E+00
   2.440000      0.0000000E+00
   2.450000      0.0000000E+00
   2.460000      0.0000000E+00
   2.470000      0.0000000E+00
   2.480000      0.0000000E+00
   2.490000      1.2048772E-38
   2.500000      1.3704625E-38
   2.510000      1.5486449E-38
   2.520000      1.7487092E-38
   2.530000      1.9643518E-38
   2.540000      2.1831412E-38
   2.550000      2.4104671E-38
   2.560000      2.6276560E-38
   2.570000      2.8152291E-38
   2.580000      2.9880296E-38
   2.590000      3.1563393E-38
   2.600000      3.3202265E-38
   2.610000      3.5025707E-38
   2.620000      3.6537871E-38
   2.630000      3.7538485E-38
   2.640000      3.8548877E-38
   2.650000      3.9523833E-38
   2.660000      3.9996301E-38
   2.670000      3.9851275E-38
   2.680000      3.9408100E-38
   2.690000      3.8702000E-38
   2.700000      3.7397674E-38
   2.710000      3.4360127E-38
   2.720000      3.0129408E-38
   2.730000      2.1016757E-38
   2.740000      0.0000000E+00
   2.750000     -1.2976279E-38
   2.760000     -3.3717332E-38
   2.770000     -5.7660831E-38
   2.780000     -8.3595183E-38
   2.790000     -1.1658532E-37
   2.800000     -1.5872583E-37
   2.810000     -2.0342939E-37
   2.820000     -2.5091240E-37
   2.830000     -3.0551625E-37
   2.840000     -3.6812030E-37
   2.850000     -4.2459693E-37
   2.860000     -4.6296395E-37
   2.870000     -4.9138389E-37
   2.880000     -5.1860321E-37
   2.890000     -5.4512887E-37
   2.900000     -5.7024951E-37
   2.910000     -5.9552584E-37
   2.920000     -6.2302151E-37
   2.930000     -6.5339207E-37
   2.940000     -6.8623388E-37
   2.950000     -7.2011540E-37
   2.960000     -7.6091888E-37
   2.970000     -7.9940853E-37
   2.980000     -8.2749154E-37
   2.990000     -8.5668895E-37
   3.000000     -8.7520465E-37
   3.010000     -8.7803703E-37
   3.020000     -8.7763040E-37
   3.030000     -8.7844508E-37
   3.040000     -8.8144705E-37
   3.050000     -8.8529320E-37
   3.060000     -8.9313159E-37
   3.070000     -8.9951936E-37
   3.080000     -8.9491817E-37
   3.090000     -8.8353128E-37
   3.100000     -8.7789900E-37
   3.110000     -8.7263694E-37
   3.120000     -8.5735969E-37
   3.130000     -8.2941560E-37
   3.140000     -7.8809483E-37
   3.150000     -7.3658494E-37
   3.160000     -6.6152058E-37
   3.170000     -5.5175896E-37
   3.180000     -4.1418141E-37
   3.190000     -2.4966325E-37
   3.200000     -6.8842599E-38
   3.210000      1.2414024E-37
   3.220000      3.4543929E-37
   3.230000      5.9373863E-37
   3.240000      8.7976746E-37
   3.250000      1.1898959E-36
   3.260000      1.4966714E-36
   3.270000      1.8073141E-36
   3.280000      2.0909382E-36
   3.290000      2.3548196E-36
   3.300000      2.6028284E-36
   3.310000      2.7953005E-36
   3.320000      2.9515604E-36
   3.330000      3.0915469E-36
   3.340000      3.2116265E-36
   3.350000      3.2629521E-36
   3.360000      3.2536513E-36
   3.370000      3.2318152E-36
   3.380000      3.2295728E-36
   3.390000      3.2507437E-36
   3.400000      3.2551203E-36
   3.410000      3.0932756E-36
   3.420000      2.7680682E-36
   3.430000      2.4549800E-36
   3.440000      2.0007003E-36
   3.450000      1.5222733E-36
   3.460000      9.6750130E-37
   3.470000      3.1284311E-37
   3.480000     -3.0335150E-37
   3.490000     -9.2535186E-37
   3.500000     -1.4864557E-36
   3.510000     -2.0261578E-36
   3.520000     -2.5417056E-36
   3.530000     -3.0025481E-36
   3.540000     -3.5545449E-36
   3.550000     -4.3142178E-36
   3.560000     -5.1518874E-36
   3.570000     -6.1719875E-36
   3.580000     -7.3133068E-36
   3.590000     -8.5449593E-36
   3.600000     -9.8695550E-36
   3.610000     -1.1207851E-35
   3.620000     -1.2826271E-35
   3.630000     -1.4744942E-35
   3.640000     -1.6727503E-35
   3.650000     -1.8636401E-35
   3.660000     -2.0508829E-35
   3.670000     -2.2782767E-35
   3.680000     -2.5516378E-35
   3.690000     -2.8163332E-35
   3.700000     -3.0689325E-35
   3.710000     -3.3278429E-35
   3.720000     -3.5829834E-35
   3.730000     -3.8194305E-35
   3.740000     -3.9915394E-35
   3.750000     -4.1031006E-35
   3.760000     -4.1995695E-35
   3.770000     -4.2780240E-35
   3.780000     -4.3305421E-35
   3.790000     -4.3473322E-35
   3.800000     -4.3209660E-35
   3.810000     -4.2479723E-35
   3.820000     -4.1105387E-35
   3.830000     -3.9032175E-35
   3.840000     -3.6340391E-35
   3.850000     -3.3264229E-35
   3.860000     -2.9863414E-35
   3.870000     -2.5916052E-35
   3.880000     -2.0641793E-35
   3.890000     -1.4248095E-35
   3.900000     -8.0047757E-36
   3.910000     -1.6338561E-36
   3.920000      5.3907009E-36
   3.930000      1.2848803E-35
   3.940000      2.1124045E-35
   3.950000      3.1242869E-35
   3.960000      4.3007438E-35
   3.970000      5.5258457E-35
   3.980000      6.8044834E-35
   3.990000      8.2047623E-35
   4.000000      9.7188691E-35
   4.010000      1.1339849E-34
   4.020000      1.3060974E-34
   4.030000      1.4823881E-34
   4.040000      1.6646101E-34
   4.050000      1.8550758E-34
   4.060000      2.0457459E-34
   4.070000      2.2347695E-34
   4.080000      2.4238714E-34
   4.090000      2.6152929E-34
   4.100000      2.8046687E-34
   4.110000      2.9893965E-34
   4.120000      3.1787539E-34
   4.130000      3.3768989E-34
   4.140000      3.5867783E-34
   4.150000      3.8066826E-34
   4.160000      4.0375008E-34
   4.170000      4.2752775E-34
   4.180000      4.5160202E-34
   4.190000      4.7514685E-34
   4.200000      4.9642284E-34
   4.210000      5.1541442E-34
   4.220000      5.3223569E-34
   4.230000      5.4662485E-34
   4.240000      5.5939783E-34
   4.250000      5.7070242E-34
   4.260000      5.7337217E-34
   4.270000      5.6706972E-34
   4.280000      5.5734012E-34
   4.290000      5.4401378E-34
   4.300000      5.2862867E-34
   4.310000      5.1341580E-34
   4.320000      4.9868093E-34
   4.330000      4.8239933E-34
   4.340000      4.6448585E-34
   4.350000      4.4190667E-34
   4.360000      4.1240608E-34
   4.370000      3.7427320E-34
   4.380000      3.2761746E-34
   4.390000      2.7457764E-34
   4.400000      2.1500781E-34
   4.410000      1.4738251E-34
   4.420000      7.0550628E-35
   4.430000     -1.3745534E-35
   4.440000     -1.0607152E-34
   4.450000     -2.0261027E-34
   4.460000     -3.0282149E-34
   4.470000     -4.1011758E-34
   4.480000     -5.2780077E-34
   4.490000     -6.5560401E-34
   4.500000     -7.9307959E-34
   4.510000     -9.4325928E-34
   4.520000     -1.1006628E-33
   4.530000     -1.2599217E-33
   4.540000     -1.4245012E-33
   4.550000     -1.5917749E-33
   4.560000     -1.7571723E-33
   4.570000     -1.9246892E-33
   4.580000     -2.0957121E-33
   4.590000     -2.2703972E-33
   4.600000     -2.4489452E-33
   4.610000     -2.6276013E-33
   4.620000     -2.8016391E-33
   4.630000     -2.9698837E-33
   4.640000     -3.1333129E-33
   4.650000     -3.2920267E-33
   4.660000     -3.4449449E-33
   4.670000     -3.5895233E-33
   4.680000     -3.7256111E-33
   4.690000     -3.8528153E-33
   4.700000     -3.9662888E-33
   4.710000     -4.0637571E-33
   4.720000     -4.1442696E-33
   4.730000     -4.2072328E-33
   4.740000     -4.2514299E-33
   4.750000     -4.2736603E-33
   4.760000     -4.2709247E-33
   4.770000     -4.2404585E-33
   4.780000     -4.1800417E-33
   4.790000     -4.0881148E-33
   4.800000     -3.9609094E-33
   4.810000     -3.7960386E-33
   4.820000     -3.5902782E-33
   4.830000     -3.3392790E-33
   4.840000     -3.0421274E-33
   4.850000     -2.6970844E-33
   4.860000     -2.3013195E-33
   4.870000     -1.8525064E-33
   4.880000     -1.3521505E-33
   4.890000     -7.9546722E-34
   4.900000     -1.8109483E-34
   4.910000      4.8795652E-34
   4.920000      1.2140316E-33
   4.930000      1.9975714E-33
   4.940000      2.8393881E-33
   4.950000      3.7371867E-33
   4.960000      4.6909450E-33
   4.970000      5.6979407E-33
   4.980000      6.7558415E-33
   4.990000      7.8632322E-33
   5.000000      9.0173391E-33
   5.010000      1.0216033E-32
   5.020000      1.1454188E-32
   5.030000      1.2727863E-32
   5.040000      1.4031052E-32
   5.050000      1.5356494E-32
   5.060000      1.6698551E-32
   5.070000      1.8051163E-32
   5.080000      1.9406219E-32
   5.090000      2.0755109E-32
   5.100000      2.2085848E-32
   5.110000      2.3386395E-32
   5.120000      2.4645071E-32
   5.130000      2.5848386E-32
   5.140000      2.6985765E-32
   5.150000      2.8043692E-32
   5.160000      2.9005802E-32
   5.170000      2.9855799E-32
   5.180000      3.0575763E-32
   5.190000      3.1147623E-32
   5.200000      3.1552137E-32
   5.210000      3.1769469E-32
   5.220000      3.1778729E-32
   5.230000      3.1558559E-32
   5.240000      3.1086330E-32
   5.250000      3.0340176E-32
   5.260000      2.9297328E-32
   5.270000      2.7934360E-32
   5.280000      2.6227806E-32
   5.290000      2.4153278E-32
   5.300000      2.1687364E-32
   5.310000      1.8806634E-32
   5.320000      1.5487513E-32
   5.330000      1.1707065E-32
   5.340000      7.4431450E-33
   5.350000      2.6741312E-33
   5.360000     -2.6206791E-33
   5.370000     -8.4606919E-33
   5.380000     -1.4863781E-32
   5.390000     -2.1846307E-32
   5.400000     -2.9422627E-32
   5.410000     -3.7604802E-32
   5.420000     -4.6402654E-32
   5.430000     -5.5823204E-32
   5.440000     -6.5870131E-32
   5.450000     -7.6543825E-32
   5.460000     -8.7840984E-32
   5.470000     -9.9754249E-32
   5.480000     -1.1227187E-31
   5.490000     -1.2537740E-31
   5.500000     -1.3904934E-31
   5.510000     -1.5326069E-31
   5.520000     -1.6797871E-31
   5.530000     -1.8316439E-31
   5.540000     -1.9877226E-31
   5.550000     -2.1474991E-31
   5.560000     -2.3103754E-31
   5.570000     -2.4756781E-31
   5.580000     -2.6426528E-31
   5.590000     -2.8104612E-31
   5.600000     -2.9781791E-31
   5.610000     -3.1447918E-31
   5.620000     -3.3091929E-31
   5.630000     -3.4701804E-31
   5.640000     -3.6264549E-31
   5.650000     -3.7766052E-31
   5.660000     -3.9191471E-31
   5.670000     -4.0524942E-31
   5.680000     -4.1749299E-31
   5.690000     -4.2846487E-31
   5.700000     -4.3797415E-31
   5.710000     -4.4581987E-31
   5.720000     -4.5179082E-31
   5.730000     -4.5566604E-31
   5.740000     -4.5721464E-31
   5.750000     -4.5619652E-31
   5.760000     -4.5236267E-31
   5.770000     -4.4545565E-31
   5.780000     -4.3521009E-31
   5.790000     -4.2135346E-31
   5.800000     -4.0360674E-31
   5.810000     -3.8168553E-31
   5.820000     -3.5530083E-31
   5.830000     -3.2416015E-31
   5.840000     -2.8796889E-31
   5.850000     -2.4643155E-31
   5.860000     -1.9925313E-31
   5.870000     -1.4614096E-31
   5.880000     -8.6806149E-32
   5.890000     -2.0965587E-32
   5.900000      5.1656129E-32
   5.910000      1.3132461E-31
   5.920000      2.1829332E-31
   5.930000      3.1280128E-31
   5.940000      4.1507053E-31
   5.950000      5.2530346E-31
   5.960000      6.4367988E-31
   5.970000      7.7035416E-31
   5.980000      9.0545227E-31
   5.990000      1.0490680E-30
   6.000000      1.2012603E-30
   6.010000      1.3620497E-30
   6.020000      1.5314143E-30
   6.030000      1.7092865E-30
   6.040000      1.8955488E-30
   6.050000      2.0900305E-30
   6.060000      2.2925031E-30
   6.070000      2.5026767E-30
   6.080000      2.7201962E-30
   6.090000      2.9446363E-30
   6.100000      3.1754981E-30
   6.110000      3.4122047E-30
   6.120000      3.6540970E-30
   6.130000      3.9004298E-30
   6.140000      4.1503677E-30
   6.150000      4.4029798E-30
   6.160000      4.6572383E-30
   6.170000      4.9120136E-30
   6.180000      5.1660693E-30
   6.190000      5.4180611E-30
   6.200000      5.6665316E-30
   6.210000      5.9099094E-30
   6.220000      6.1465050E-30
   6.230000      6.3745084E-30
   6.240000      6.5919880E-30
   6.250000      6.7968896E-30
   6.260000      6.9870346E-30
   6.270000      7.1601178E-30
   6.280000      7.3137107E-30
   6.290000      7.4452592E-30
   6.300000      7.5520866E-30
   6.310000      7.6313943E-30
   6.320000      7.6802656E-30
   6.330000      7.6956677E-30
   6.340000      7.6744562E-30
   6.350000      7.6133809E-30
   6.360000      7.5090903E-30
   6.370000      7.3581402E-30
   6.380000      7.1570002E-30
   6.390000      6.9020635E-30
   6.400000      6.5896573E-30
   6.410000      6.2160521E-30
   6.420000      5.7774757E-30
   6.430000      5.2701275E-30
   6.440000      4.6901916E-30
   6.450000      4.0338550E-30
   6.460000      3.2973237E-30
   6.470000      2.4768433E-30
   6.480000      1.5687189E-30
   6.490000      5.6933705E-31
   6.500000     -5.2481252E-31
   6.510000     -1.7171093E-30
   6.520000     -3.0107764E-30
   6.530000     -4.4088527E-30
   6.540000     -5.9141634E-30
   6.550000     -7.5292892E-30
   6.560000     -9.2565324E-30
   6.570000     -1.1097885E-29
   6.580000     -1.3054991E-29
   6.590000     -1.5129108E-29
   6.600000     -1.7321075E-29
   6.610000     -1.9631270E-29
   6.620000     -2.2059562E-29
   6.630000     -2.4605282E-29
   6.640000     -2.7267166E-29
   6.650000     -3.0043324E-29
   6.660000     -3.2931187E-29
   6.670000     -3.5927459E-29
   6.680000     -3.9028080E-29
   6.690000     -4.2228172E-29
   6.700000     -4.5521993E-29
   6.710000     -4.8902897E-29
   6.720000     -5.2363267E-29
   6.730000     -5.5894489E-29
   6.740000     -5.9486902E-29
   6.750000     -6.3129745E-29
   6.760000     -6.6811118E-29
   6.770000     -7.0517931E-29
   6.780000     -7.4235879E-29
   6.790000     -7.7949384E-29
   6.800000     -8.1641561E-29
   6.810000     -8.5294189E-29
   6.820000     -8.8887679E-29
   6.830000     -9.2401051E-29
   6.840000     -9.5811879E-29
   6.850000     -9.9096318E-29
   6.860000     -1.0222904E-28
   6.870000     -1.0518324E-28
   6.880000     -1.0793064E-28
   6.890000     -1.1044149E-28
   6.900000     -1.1268455E-28
   6.910000     -1.1462711E-28
   6.920000     -1.1623504E-28
   6.930000     -1.1747275E-28
   6.940000     -1.1830332E-28
   6.950000     -1.1868845E-28
   6.960000     -1.1858859E-28
   6.970000     -1.1796296E-28
   6.980000     -1.1676960E-28
   6.990000     -1.1496551E-28
   7.000000     -1.1250674E-28
   7.010000     -1.0934844E-28
   7.020000     -1.0544507E-28
   7.030000     -1.0075044E-28
   7.040000     -9.5217892E-29
   7.050000     -8.8800495E-29
   7.060000     -8.1451164E-29