  -2.600000      0.0000000E+00
  -2.590000      0.0000000E+00
  -2.580000      0.0000000E+00
  -2.570000      0.0000000E+00
  -2.560000      0.0000000E+00
  -2.550000      0.0000000E+00
  -2.540000      0.0000000E+00
  -2.530000      0.0000000E+00
  -2.520000      0.0000000E+00
  -2.510000      0.0000000E+00
  -2.500000      0.0000000E+00
  -2.490000      0.0000000E+00
  -2.480000      0.0000000E+00
  -2.470000      0.0000000E+00
  -2.460000      0.0000000E+00
  -2.450000      0.0000000E+00
  -2.440000      0.0000000E+00
  -2.430000      0.0000000E+00
  -2.420000      0.0000000E+00
  -2.410000      0.0000000E+00
  -2.400000      0.0000000E+00
  -2.390000      0.0000000E+00
  -2.380000      0.0000000E+00
  -2.370000      0.0000000E+00
  -2.360000      0.0000000E+00
  -2.350000      0.0000000E+00
  -2.340000      0.0000000E+00
  -2.330000      0.0000000E+00
  -2.320000      0.0000000E+00
  -2.310000      0.0000000E+00
  -2.300000      0.0000000E+00
  -2.290000      0.0000000E+00
  -2.280000      0.0000000E+00
  -2.270000      0.0000000E+00
  -2.260000      0.0000000E+00
  -2.250000      0.0000000E+00
  -2.240000      0.0000000E+00
  -2.230000      0.0000000E+00
  -2.220000      0.0000000E+00
  -2.210000      0.0000000E+00
  -2.200000      0.0000000E+00
  -2.190000      0.0000000E+00
  -2.180000      0.0000000E+00
  -2.170000      0.0000000E+00
  -2.160000      0.0000000E+00
  -2.150000      0.0000000E+00
  -2.140000      0.0000000E+00
  -2.130000      0.0000000E+00
  -2.120000      0.0000000E+00
  -2.110000      0.0000000E+00
  -2.100000      0.0000000E+00
  -2.090000      0.0000000E+00
  -2.080000      0.0000000E+00
  -2.070000      0.0000000E+00
  -2.060000      0.0000000E+00
  -2.050000      0.0000000E+00
  -2.040000      0.0000000E+00
  -2.030000      0.0000000E+00
  -2.020000      0.0000000E+00
  -2.010000      0.0000000E+00
  -2.000000      0.0000000E+00
  -1.990000      0.0000000E+00
  -1.980000      0.0000000E+00
  -1.970000      0.0000000E+00
  -1.960000      0.0000000E+00
  -1.950000      0.0000000E+00
  -1.940000      0.0000000E+00
  -1.930000      0.0000000E+00
  -1.920000      0.0000000E+00
  -1.910000      0.0000000E+00
  -1.900000      0.0000000E+00
  -1.890000      0.0000000E+00
  -1.880000      0.0000000E+00
  -1.870000      0.0000000E+00
  -1.860000      0.0000000E+00
  -1.850000      0.0000000E+00
  -1.840000      0.0000000E+00
  -1.830000      0.0000000E+00
  -1.820000      0.0000000E+00
  -1.810000      0.0000000E+00
  -1.800000      0.0000000E+00
  -1.790000      0.0000000E+00
  -1.780000      0.0000000E+00
  -1.770000      0.0000000E+00
  -1.760000      0.0000000E+00
  -1.750000      0.0000000E+00
  -1.740000      0.0000000E+00
  -1.730000      0.0000000E+00
  -1.720000      0.0000000E+00
  -1.710000      0.0000000E+00
  -1.700000      0.0000000E+00
  -1.690000      0.0000000E+00
  -1.680000      0.0000000E+00
  -1.670000      0.0000000E+00
  -1.660000      0.0000000E+00
  -1.650000      0.0000000E+00
  -1.640000      0.0000000E+00
  -1.630000      0.0000000E+00
  -1.620000      0.0000000E+00
  -1.610000      0.0000000E+00
  -1.600000      0.0000000E+00
  -1.590000      0.0000000E+00
  -1.580000      0.0000000E+00
  -1.570000      0.0000000E+00
  -1.560000      0.0000000E+00
  -1.550000      0.0000000E+00
  -1.540000      0.0000000E+00
  -1.530000      0.0000000E+00
  -1.520000      0.0000000E+00
  -1.510000      0.0000000E+00
  -1.500000      0.0000000E+00
  -1.490000      0.0000000E+00
  -1.480000      0.0000000E+00
  -1.470000      0.0000000E+00
  -1.460000      0.0000000E+00
  -1.450000      0.0000000E+00
  -1.440000      0.0000000E+00
  -1.430000      0.0000000E+00
  -1.420000      0.0000000E+00
  -1.410000      0.0000000E+00
  -1.400000      0.0000000E+00
  -1.390000      0.0000000E+00
  -1.380000      0.0000000E+00
  -1.370000      0.0000000E+00
  -1.360000      0.0000000E+00
  -1.350000      0.0000000E+00
  -1.340000      0.0000000E+00
  -1.330000      0.0000000E+00
  -1.320000      0.0000000E+00
  -1.310000      0.0000000E+00
  -1.300000      0.0000000E+00
  -1.290000      0.0000000E+00
  -1.280000      0.0000000E+00
  -1.270000      0.0000000E+00
  -1.260000      0.0000000E+00
  -1.250000      0.0000000E+00
  -1.240000      0.0000000E+00
  -1.230000      0.0000000E+00
  -1.220000      0.0000000E+00
  -1.210000      0.0000000E+00
  -1.200000      0.0000000E+00
  -1.190000      0.0000000E+00
  -1.180000      0.0000000E+00
  -1.170000      0.0000000E+00
  -1.160000      0.0000000E+00
  -1.150000      0.0000000E+00
  -1.140000      0.0000000E+00
  -1.130000      0.0000000E+00
  -1.120000      0.0000000E+00
  -1.110000      0.0000000E+00
  -1.100000      0.0000000E+00
  -1.090000      0.0000000E+00
  -1.080000      0.0000000E+00
  -1.070000      0.0000000E+00
  -1.060000      0.0000000E+00
  -1.050000      0.0000000E+00
  -1.040000      0.0000000E+00
  -1.030000      0.0000000E+00
  -1.020000      0.0000000E+00
  -1.010000      0.0000000E+00
  -1.000000      0.0000000E+00
 -0.9900000      0.0000000E+00
 -0.9800000      0.0000000E+00
 -0.9700000      0.0000000E+00
 -0.9600000      0.0000000E+00
 -0.9500000      0.0000000E+00
 -0.9400000      0.0000000E+00
 -0.9300000      0.0000000E+00
 -0.9200000      0.0000000E+00
 -0.9100000      0.0000000E+00
 -0.9000000      0.0000000E+00
 -0.8900000      0.0000000E+00
 -0.8800000      0.0000000E+00
 -0.8700000      0.0000000E+00
 -0.8600000      0.0000000E+00
 -0.8500000      0.0000000E+00
 -0.8400000      0.0000000E+00
 -0.8300000      0.0000000E+00
 -0.8200000      0.0000000E+00
 -0.8100000      0.0000000E+00
 -0.8000000      0.0000000E+00
 -0.7900000      0.0000000E+00
 -0.7800000      0.0000000E+00
 -0.7700000      0.0000000E+00
 -0.7600000      0.0000000E+00
 -0.7500000      0.0000000E+00
 -0.7400000      0.0000000E+00
 -0.7300000      0.0000000E+00
 -0.7200000      0.0000000E+00
 -0.7100000      0.0000000E+00
 -0.7000000      0.0000000E+00
 -0.6900000      0.0000000E+00
 -0.6800000      0.0000000E+00
 -0.6700000      0.0000000E+00
 -0.6600000      0.0000000E+00
 -0.6500000      0.0000000E+00
 -0.6400000      0.0000000E+00
 -0.6300000      0.0000000E+00
 -0.6200000      0.0000000E+00
 -0.6100000      0.0000000E+00
 -0.6000000      0.0000000E+00
 -0.5900000      0.0000000E+00
 -0.5800000      0.0000000E+00
 -0.5700000      0.0000000E+00
 -0.5600000      0.0000000E+00
 -0.5500000      0.0000000E+00
 -0.5400000      0.0000000E+00
 -0.5300000      0.0000000E+00
 -0.5200000      0.0000000E+00
 -0.5100000      0.0000000E+00
 -0.5000000      0.0000000E+00
 -0.4900000      0.0000000E+00
 -0.4800000      0.0000000E+00
 -0.4700000      0.0000000E+00
 -0.4600000      0.0000000E+00
 -0.4500000      0.0000000E+00
 -0.4400000      0.0000000E+00
 -0.4300000      0.0000000E+00
 -0.4200000      0.0000000E+00
 -0.4100000      0.0000000E+00
 -0.4000000      0.0000000E+00
 -0.3900000      0.0000000E+00
 -0.3800000      0.0000000E+00
 -0.3700000      0.0000000E+00
 -0.3600000      0.0000000E+00
 -0.3500000      0.0000000E+00
 -0.3400000      0.0000000E+00
 -0.3300000      0.0000000E+00
 -0.3200000      0.0000000E+00
 -0.3100000      0.0000000E+00
 -0.3000000      0.0000000E+00
 -0.2900000      0.0000000E+00
 -0.2800000      0.0000000E+00
 -0.2700000      0.0000000E+00
 -0.2600000      0.0000000E+00
 -0.2500000      0.0000000E+00
 -0.2400000      0.0000000E+00
 -0.2300000      0.0000000E+00
 -0.2200000      0.0000000E+00
 -0.2100000      0.0000000E+00
 -0.2000000      0.0000000E+00
 -0.1900000      0.0000000E+00
 -0.1800000      0.0000000E+00
 -0.1700000      0.0000000E+00
 -0.1600000      0.0000000E+00
 -0.1500000      0.0000000E+00
 -0.1400000      0.0000000E+00
 -0.1300000      0.0000000E+00
 -0.1200000      0.0000000E+00
 -0.1100000      0.0000000E+00
 -0.1000000      0.0000000E+00
 -9.0000004E-02  0.0000000E+00
 -7.9999998E-02  0.0000000E+00
 -7.0000000E-02  0.0000000E+00
 -5.9999999E-02  0.0000000E+00
 -5.0000001E-02  0.0000000E+00
 -3.9999999E-02  0.0000000E+00
 -2.9999999E-02  0.0000000E+00
 -2.0000000E-02  0.0000000E+00
 -9.9999998E-03  0.0000000E+00
 -3.4694470E-17  0.0000000E+00
  9.9999998E-03  0.0000000E+00
  2.0000000E-02  0.0000000E+00
  2.9999999E-02  0.0000000E+00
  3.9999999E-02  0.0000000E+00
  5.0000001E-02  0.0000000E+00
  5.9999999E-02  0.0000000E+00
  7.0000000E-02  0.0000000E+00
  7.9999998E-02  0.0000000E+00
  9.0000004E-02  0.0000000E+00
  0.1000000      0.0000000E+00
  0.1100000      0.0000000E+00
  0.1200000      0.0000000E+00
  0.1300000      0.0000000E+00
  0.1400000      0.0000000E+00
  0.1500000      0.0000000E+00
  0.1600000      0.0000000E+00
  0.1700000      0.0000000E+00
  0.1800000      0.0000000E+00
  0.1900000      0.0000000E+00
  0.2000000      0.0000000E+00
  0.2100000      0.0000000E+00
  0.2200000      0.0000000E+00
  0.2300000      0.0000000E+00
  0.2400000      0.0000000E+00
  0.2500000      0.0000000E+00
  0.2600000      0.0000000E+00
  0.2700000      0.0000000E+00
  0.2800000      0.0000000E+00
  0.2900000      0.0000000E+00
  0.3000000      0.0000000E+00
  0.3100000      0.0000000E+00
  0.3200000      0.0000000E+00
  0.3300000      0.0000000E+00
  0.3400000      0.0000000E+00
  0.3500000      0.0000000E+00
  0.3600000      0.0000000E+00
  0.3700000      0.0000000E+00
  0.3800000      0.0000000E+00
  0.3900000      0.0000000E+00
  0.4000000      0.0000000E+00
  0.4100000      0.0000000E+00
  0.4200000      0.0000000E+00
  0.4300000      0.0000000E+00
  0.4400000      0.0000000E+00
  0.4500000      0.0000000E+00
  0.4600000      0.0000000E+00
  0.4700000      0.0000000E+00
  0.4800000      0.0000000E+00
  0.4900000      0.0000000E+00
  0.5000000      0.0000000E+00
  0.5100000      0.0000000E+00
  0.5200000      0.0000000E+00
  0.5300000      0.0000000E+00
  0.5400000      0.0000000E+00
  0.5500000      0.0000000E+00
  0.5600000      0.0000000E+00
  0.5700000      0.0000000E+00
  0.5800000      0.0000000E+00
  0.5900000      0.0000000E+00
  0.6000000      0.0000000E+00
  0.6100000      0.0000000E+00
  0.6200000      0.0000000E+00
  0.6300000      0.0000000E+00
  0.6400000      0.0000000E+00
  0.6500000      0.0000000E+00
  0.6600000      0.0000000E+00
  0.6700000      0.0000000E+00
  0.6800000      0.0000000E+00
  0.6900000      0.0000000E+00
  0.7000000      0.0000000E+00
  0.7100000      0.0000000E+00
  0.7200000      0.0000000E+00
  0.7300000      0.0000000E+00
  0.7400000     -1.6735616E-38
  0.7500000     -2.5991250E-38
  0.7600000     -3.7348671E-38
  0.7700000     -5.2618511E-38
  0.7800000     -6.7730500E-38
  0.7900000     -8.0208884E-38
  0.8000000     -9.2445728E-38
  0.8100000     -9.8349617E-38
  0.8200000     -9.6272175E-38
  0.8300000     -9.1672189E-38
  0.8400000     -8.6650877E-38
  0.8500000     -8.2984676E-38
  0.8600000     -8.4440340E-38
  0.8700000     -9.1298395E-38
  0.8800000     -1.0012354E-37
  0.8900000     -1.0909974E-37
  0.9000000     -1.2174501E-37
  0.9100000     -1.3845103E-37
  0.9200000     -1.5537844E-37
  0.9300000     -1.7201361E-37
  0.9400000     -1.8499714E-37
  0.9500000     -1.9305888E-37
  0.9600000     -1.9514294E-37
  0.9700000     -1.9018434E-37
  0.9800000     -1.8238616E-37
  0.9900000     -1.7039095E-37
   1.000000     -1.4506532E-37
   1.010000     -1.0220624E-37
   1.020000     -1.3458236E-37
   1.030000     -2.6600811E-37
   1.040000     -4.0746078E-37
   1.050000     -6.6959377E-37
   1.060000     -1.0848218E-36
   1.070000     -1.5412593E-36
   1.080000     -2.0852530E-36
   1.090000     -2.7243531E-36
   1.100000     -2.9031078E-36
   1.110000     -2.5007887E-36
   1.120000     -1.9259916E-36
   1.130000     -1.2073083E-36
   1.140000     -4.5679967E-37
   1.150000      2.1240485E-37
   1.160000      7.9429687E-37
   1.170000      1.2600401E-36
   1.180000      1.6277824E-36
   1.190000      1.9038282E-36
   1.200000      2.0145987E-36
   1.210000      1.9410686E-36
   1.220000      1.3310907E-36
   1.230000      1.5332559E-37
   1.240000     -1.1401928E-36
   1.250000     -1.5861343E-36
   1.260000     -4.6095267E-37
   1.270000      1.4789908E-36
   1.280000      3.5153132E-36
   1.290000      5.2843938E-36
   1.300000      6.8565802E-36
   1.310000      8.6122367E-36
   1.320000      1.0780319E-35
   1.330000      1.3402418E-35
   1.340000      1.6528809E-35
   1.350000      2.0069551E-35
   1.360000      2.3155112E-35
   1.370000      2.4803459E-35
   1.380000      2.5413123E-35
   1.390000      2.5992898E-35
   1.400000      2.6022902E-35
   1.410000      2.5112741E-35
   1.420000      2.3668197E-35
   1.430000      2.1763611E-35
   1.440000      1.9471707E-35
   1.450000      1.6913880E-35
   1.460000      1.3926243E-35
   1.470000      1.0957392E-35
   1.480000      8.4077843E-36
   1.490000      6.0321105E-36
   1.500000      3.4104285E-36
   1.510000      3.4305333E-37
   1.520000     -3.0644099E-36
   1.530000     -6.9948314E-36
   1.540000     -1.1450352E-35
   1.550000     -1.6962505E-35
   1.560000     -2.5380237E-35
   1.570000     -3.6350495E-35
   1.580000     -4.8296368E-35
   1.590000     -6.0974987E-35
   1.600000     -7.3604675E-35
   1.610000     -8.5600520E-35
   1.620000     -9.5717715E-35
   1.630000     -1.0409629E-34
   1.640000     -1.1211536E-34
   1.650000     -1.1915022E-34
   1.660000     -1.2432587E-34
   1.670000     -1.2769502E-34
   1.680000     -1.3339055E-34
   1.690000     -1.4237429E-34
   1.700000     -1.5163382E-34
   1.710000     -1.5879180E-34
   1.720000     -1.6124416E-34
   1.730000     -1.6082765E-34
   1.740000     -1.6138306E-34
   1.750000     -1.6339042E-34
   1.760000     -1.6110454E-34
   1.770000     -1.5171486E-34
   1.780000     -1.4071609E-34
   1.790000     -1.2757073E-34
   1.800000     -1.0866938E-34
   1.810000     -8.4805942E-35
   1.820000     -4.8113437E-35
   1.830000      2.2199325E-36
   1.840000      4.9012931E-35
   1.850000      8.8737167E-35
   1.860000      1.2918386E-34
   1.870000      1.7050853E-34
   1.880000      2.1434377E-34
   1.890000      2.6185248E-34
   1.900000      3.1374791E-34
   1.910000      3.6255446E-34
   1.920000      3.9685750E-34
   1.930000      4.2599814E-34
   1.940000      4.6767125E-34
   1.950000      5.1774460E-34
   1.960000      5.6531580E-34
   1.970000      6.1270026E-34
   1.980000      6.6376176E-34
   1.990000      7.2389105E-34
   2.000000      7.9417721E-34
   2.010000      8.6744522E-34
   2.020000      9.3373502E-34
   2.030000      9.9129540E-34
   2.040000      1.0363880E-33
   2.050000      1.0535403E-33
   2.060000      1.0462462E-33
   2.070000      1.0273734E-33
   2.080000      9.8578692E-34
   2.090000      9.2052880E-34
   2.100000      8.5273822E-34
   2.110000      7.8465993E-34
   2.120000      7.0703547E-34
   2.130000      6.2065390E-34
   2.140000      5.2506633E-34
   2.150000      4.1791625E-34
   2.160000      2.9521643E-34
   2.170000      1.5295078E-34
   2.180000     -1.2338951E-35
   2.190000     -2.0465490E-34
   2.200000     -4.2555246E-34
   2.210000     -6.7648630E-34
   2.220000     -9.5905792E-34
   2.230000     -1.2735298E-33
   2.240000     -1.6160094E-33
   2.250000     -1.9823377E-33
   2.260000     -2.3670507E-33
   2.270000     -2.7675854E-33
   2.280000     -3.1763452E-33
   2.290000     -3.5870434E-33
   2.300000     -4.0010889E-33
   2.310000     -4.4155781E-33
   2.320000     -4.8282784E-33
   2.330000     -5.2402106E-33
   2.340000     -5.6505106E-33
   2.350000     -6.0633718E-33
   2.360000     -6.4638546E-33
   2.370000     -6.8506878E-33
   2.380000     -7.2436754E-33
   2.390000     -7.6332371E-33
   2.400000     -8.0065426E-33
   2.410000     -8.3553911E-33
   2.420000     -8.6686956E-33
   2.430000     -8.9338313E-33
   2.440000     -9.1392320E-33
   2.450000     -9.2737431E-33
   2.460000     -9.3258939E-33
   2.470000     -9.2859242E-33
   2.480000     -9.1453225E-33
   2.490000     -8.8978523E-33
   2.500000     -8.5392119E-33
   2.510000     -8.0656574E-33
   2.520000     -7.4737681E-33
   2.530000     -6.7613943E-33
   2.540000     -5.9259234E-33
   2.550000     -4.9620225E-33
   2.560000     -3.8649582E-33
   2.570000     -2.6294337E-33
   2.580000     -1.2477378E-33
   2.590000      2.8844016E-34
   2.600000      1.9868325E-33
   2.610000      3.8545558E-33
   2.620000      5.8974221E-33
   2.630000      8.1186913E-33
   2.640000      1.0518505E-32
   2.650000      1.3093426E-32
   2.660000      1.5837152E-32
   2.670000      1.8739230E-32
   2.680000      2.1786558E-32
   2.690000      2.4964035E-32
   2.700000      2.8253189E-32
   2.710000      3.1634401E-32
   2.720000      3.5087396E-32
   2.730000      3.8591092E-32
   2.740000      4.2124058E-32
   2.750000      4.5664508E-32
   2.760000      4.9191664E-32
   2.770000      5.2679979E-32
   2.780000      5.6102261E-32
   2.790000      5.9432683E-32
   2.800000      6.2640736E-32
   2.810000      6.5692578E-32
   2.820000      6.8550669E-32
   2.830000      7.1173720E-32
   2.840000      7.3516951E-32
   2.850000      7.5532518E-32
   2.860000      7.7170287E-32
   2.870000      7.8379001E-32
   2.880000      7.9106180E-32
   2.890000      7.9299778E-32
   2.900000      7.8909725E-32
   2.910000      7.7887733E-32
   2.920000      7.6187950E-32
   2.930000      7.3767049E-32
   2.940000      7.0584551E-32
   2.950000      6.6602570E-32
   2.960000      6.1785670E-32
   2.970000      5.6100697E-32
   2.980000      4.9516736E-32
   2.990000      4.2004956E-32
   3.000000      3.3539243E-32
   3.010000      2.4096579E-32
   3.020000      1.3657831E-32
   3.030000      2.2087149E-33
   3.040000     -1.0258064E-32
   3.050000     -2.3742301E-32
   3.060000     -3.8235925E-32
   3.070000     -5.3720586E-32
   3.080000     -7.0167027E-32
   3.090000     -8.7534439E-32
   3.100000     -1.0577002E-31
   3.110000     -1.2480884E-31
   3.120000     -1.4457384E-31
   3.130000     -1.6497618E-31
   3.140000     -1.8591553E-31
   3.150000     -2.0728049E-31
   3.160000     -2.2894887E-31
   3.170000     -2.5078793E-31
   3.180000     -2.7265432E-31
   3.190000     -2.9439398E-31
   3.200000     -3.1584179E-31
   3.210000     -3.3682114E-31
   3.220000     -3.5714363E-31
   3.230000     -3.7660869E-31
   3.240000     -3.9500325E-31
   3.250000     -4.1210204E-31
   3.260000     -4.2766788E-31
   3.270000     -4.4145258E-31
   3.280000     -4.5319798E-31
   3.290000     -4.6263752E-31
   3.300000     -4.6949804E-31
   3.310000     -4.7350187E-31
   3.320000     -4.7436891E-31
   3.330000     -4.7181908E-31
   3.340000     -4.6557438E-31
   3.350000     -4.5536121E-31
   3.360000     -4.4091241E-31
   3.370000     -4.2196923E-31
   3.380000     -3.9828330E-31
   3.390000     -3.6961873E-31
   3.400000     -3.3575408E-31
   3.410000     -2.9648471E-31
   3.420000     -2.5162515E-31
   3.430000     -2.0101186E-31
   3.440000     -1.4450631E-31
   3.450000     -8.1998501E-32
   3.460000     -1.3410454E-32
   3.470000      6.1299838E-32
   3.480000      1.4213428E-31
   3.490000      2.2905065E-31
   3.500000      3.2195859E-31
   3.510000      4.2071596E-31
   3.520000      5.2512535E-31
   3.530000      6.3493058E-31
   3.540000      7.4981409E-31
   3.550000      8.6939421E-31
   3.560000      9.9322351E-31
   3.570000      1.1207861E-30
   3.580000      1.2514965E-30
   3.590000      1.3846976E-30
   3.600000      1.5196589E-30
   3.610000      1.6555756E-30
   3.620000      1.7915670E-30
   3.630000      1.9266751E-30
   3.640000      2.0598633E-30
   3.650000      2.1900161E-30
   3.660000      2.3159379E-30
   3.670000      2.4363527E-30
   3.680000      2.5499066E-30
   3.690000      2.6551677E-30
   3.700000      2.7506288E-30
   3.710000      2.8347105E-30
   3.720000      2.9057652E-30
   3.730000      2.9620833E-30
   3.740000      3.0018975E-30
   3.750000      3.0233903E-30
   3.760000      3.0247018E-30
   3.770000      3.0039376E-30
   3.780000      2.9591780E-30
   3.790000      2.8884877E-30
   3.800000      2.7899260E-30
   3.810000      2.6615577E-30
   3.820000      2.5014653E-30
   3.830000      2.3077614E-30
   3.840000      2.0786033E-30
   3.850000      1.8122060E-30
   3.860000      1.5068590E-30
   3.870000      1.1609432E-30
   3.880000      7.7294838E-31
   3.890000      3.4149134E-31
   3.900000     -1.3466428E-31
   3.910000     -6.5658887E-31
   3.920000     -1.2251643E-30
   3.930000     -1.8410623E-30
   3.940000     -2.5047227E-30
   3.950000     -3.2163316E-30
   3.960000     -3.9757980E-30
   3.970000     -4.7827329E-30
   3.980000     -5.6364228E-30
   3.990000     -6.5358118E-30
   4.000000     -7.4794746E-30
   4.010000     -8.4655989E-30
   4.020000     -9.4919555E-30
   4.030000     -1.0555883E-29
   4.040000     -1.1654261E-29
   4.050000     -1.2783491E-29
   4.060000     -1.3939473E-29
   4.070000     -1.5117583E-29
   4.080000     -1.6312660E-29
   4.090000     -1.7518979E-29
   4.100000     -1.8730240E-29
   4.110000     -1.9939550E-29
   4.120000     -2.1139407E-29
   4.130000     -2.2321695E-29
   4.140000     -2.3477668E-29
   4.150000     -2.4597953E-29
   4.160000     -2.5672538E-29
   4.170000     -2.6690777E-29
   4.180000     -2.7641407E-29
   4.190000     -2.8512532E-29
   4.200000     -2.9291655E-29
   4.210000     -2.9965682E-29
   4.220000     -3.0520943E-29
   4.230000     -3.0943227E-29
   4.240000     -3.1217802E-29
   4.250000     -3.1329445E-29
   4.260000     -3.1262495E-29
   4.270000     -3.1000873E-29
   4.280000     -3.0528153E-29
   4.290000     -2.9827611E-29
   4.300000     -2.8882287E-29
   4.310000     -2.7675057E-29
   4.320000     -2.6188690E-29
   4.330000     -2.4405941E-29
   4.340000     -2.2309629E-29
   4.350000     -1.9882753E-29
   4.360000     -1.7108573E-29
   4.370000     -1.3970709E-29
   4.380000     -1.0453274E-29
   4.390000     -6.5409757E-30
   4.400000     -2.2192645E-30
   4.410000      2.5255406E-30
   4.420000      7.7061152E-30
   4.430000      1.3333982E-29
   4.440000      1.9419356E-29
   4.450000      2.5970985E-29
   4.460000      3.2995974E-29
   4.470000      4.0499613E-29
   4.480000      4.8485208E-29
   4.490000      5.6953883E-29
   4.500000      6.5904396E-29
   4.510000      7.5332930E-29
   4.520000      8.5232926E-29
   4.530000      9.5594845E-29
   4.540000      1.0640600E-28
   4.550000      1.1765034E-28
   4.560000      1.2930821E-28
   4.570000      1.4135623E-28
   4.580000      1.5376699E-28
   4.590000      1.6650891E-28
   4.600000      1.7954603E-28
   4.610000      1.9283784E-28
   4.620000      2.0633901E-28
   4.630000      2.1999931E-28
   4.640000      2.3376341E-28
   4.650000      2.4757071E-28
   4.660000      2.6135517E-28
   4.670000      2.7504516E-28
   4.680000      2.8856336E-28
   4.690000      3.0182673E-28
   4.700000      3.1474623E-28
   4.710000      3.2722688E-28
   4.720000      3.3916770E-28
   4.730000      3.5046157E-28
   4.740000      3.6099544E-28
   4.750000      3.7065010E-28
   4.760000      3.7930040E-28
   4.770000      3.8681518E-28
   4.780000      3.9305755E-28
   4.790000      3.9788490E-28
   4.800000      4.0114911E-28
   4.810000      4.0269678E-28
   4.820000      4.0236962E-28
   4.830000      4.0000453E-28
   4.840000      3.9543413E-28
   4.850000      3.8848711E-28
   4.860000      3.7898871E-28
   4.870000      3.6676110E-28
   4.880000      3.5162411E-28
   4.890000      3.3339569E-28
   4.900000      3.1189275E-28
   4.910000      2.8693193E-28
   4.920000      2.5833009E-28
   4.930000      2.2590549E-28
   4.940000      1.8947873E-28
   4.950000      1.4887343E-28
   4.960000      1.0391762E-28
   4.970000      5.4444631E-29
   4.980000      2.9436746E-31
   4.990000     -5.8685384E-29
   5.000000     -1.2263774E-28
   5.010000     -1.9169529E-28
   5.020000     -2.6597851E-28
   5.030000     -3.4559426E-28
   5.040000     -4.3063428E-28
   5.050000     -5.2117364E-28
   5.060000     -6.1726912E-28
   5.070000     -7.1895692E-28
   5.080000     -8.2625129E-28
   5.090000     -9.3914266E-28
   5.100000     -1.0575954E-27
   5.110000     -1.1815467E-27
   5.120000     -1.3109029E-27
   5.130000     -1.4455391E-27
   5.140000     -1.5852962E-27
   5.150000     -1.7299795E-27
   5.160000     -1.8793556E-27
   5.170000     -2.0331509E-27
   5.180000     -2.1910494E-27
   5.190000     -2.3526910E-27
   5.200000     -2.5176677E-27
   5.210000     -2.6855240E-27
   5.220000     -2.8557531E-27
   5.230000     -3.0277959E-27
   5.240000     -3.2010387E-27
   5.250000     -3.3748109E-27
   5.260000     -3.5483846E-27
   5.270000     -3.7209706E-27
   5.280000     -3.8917209E-27
   5.290000     -4.0597228E-27
   5.300000     -4.2240016E-27
   5.310000     -4.3835163E-27
   5.320000     -4.5371605E-27
   5.330000     -4.6837626E-27
   5.340000     -4.8220829E-27
   5.350000     -4.9508163E-27
   5.360000     -5.0685912E-27
   5.370000     -5.1739688E-27
   5.380000     -5.2654451E-27
   5.390000     -5.3414527E-27
   5.400000     -5.4003596E-27
   5.410000     -5.4404744E-27
   5.420000     -5.4600472E-27
   5.430000     -5.4572700E-27
   5.440000     -5.4302804E-27
   5.450000     -5.3771683E-27
   5.460000     -5.2959772E-27
   5.470000     -5.1847105E-27
   5.480000     -5.0413339E-27
   5.490000     -4.8637828E-27
   5.500000     -4.6499691E-27
   5.510000     -4.3977875E-27
   5.520000     -4.1051201E-27
   5.530000     -3.7698492E-27
   5.540000     -3.3898605E-27
   5.550000     -2.9630565E-27
   5.560000     -2.4873655E-27
   5.570000     -1.9607500E-27
   5.580000     -1.3812210E-27
   5.590000     -7.4685084E-28
   5.600000     -5.5785548E-29
   5.610000      6.9374495E-28
   5.620000      1.5034097E-27
   5.630000      2.3747631E-27
   5.640000      3.3092272E-27
   5.650000      4.3080784E-27
   5.660000      5.3724309E-27
   5.670000      6.5032160E-27
   5.680000      7.7011668E-27
   5.690000      8.9667970E-27
   5.700000      1.0300383E-26
   5.710000      1.1701937E-26
   5.720000      1.3171205E-26
   5.730000      1.4707624E-26
   5.740000      1.6310317E-26
   5.750000      1.7978055E-26
   5.760000      1.9709260E-26
   5.770000      2.1501954E-26
   5.780000      2.3353751E-26
   5.790000      2.5261839E-26
   5.800000      2.7222943E-26
   5.810000      2.9233324E-26
   5.820000      3.1288732E-26
   5.830000      3.3384402E-26
   5.840000      3.5515029E-26
   5.850000      3.7674746E-26
   5.860000      3.9857099E-26
   5.870000      4.2055028E-26
   5.880000      4.4260859E-26
   5.890000      4.6466271E-26
   5.900000      4.8662287E-26
   5.910000      5.0839263E-26
   5.920000      5.2986875E-26
   5.930000      5.5094089E-26
   5.940000      5.7149176E-26
   5.950000      5.9139688E-26
   5.960000      6.1052454E-26
   5.970000      6.2873576E-26
   5.980000      6.4588461E-26
   5.990000      6.6181751E-26
   6.000000      6.7637402E-26
   6.010000      6.8938647E-26
   6.020000      7.0068006E-26
   6.030000      7.1007355E-26
   6.040000      7.1737889E-26
   6.050000      7.2240172E-26
   6.060000      7.2494166E-26
   6.070000      7.2479240E-26
   6.080000      7.2174222E-26
   6.090000      7.1557443E-26
   6.100000      7.0606792E-26
   6.110000      6.9299748E-26
   6.120000      6.7613459E-26
   6.130000      6.5524784E-26
   6.140000      6.3010388E-26
   6.150000      6.0046779E-26
   6.160000      5.6610427E-26
   6.170000      5.2677857E-26
   6.180000      4.8225680E-26
   6.190000      4.3230749E-26
   6.200000      3.7670271E-26
   6.210000      3.1521871E-26
   6.220000      2.4763738E-26
   6.230000      1.7374759E-26
   6.240000      9.3346543E-27
   6.250000      6.2414358E-28
   6.260000     -8.7749197E-27
   6.270000     -1.8879463E-26
   6.280000     -2.9704939E-26
   6.290000     -4.1265203E-26
   6.300000     -5.3572370E-26
   6.310000     -6.6636609E-26
   6.320000     -8.0465926E-26
   6.330000     -9.5066010E-26
   6.340000     -1.1044005E-25
   6.350000     -1.2658853E-25
   6.360000     -1.4350905E-25
   6.370000     -1.6119605E-25
   6.380000     -1.7964069E-25
   6.390000     -1.9883058E-25
   6.400000     -2.1874955E-25
   6.410000     -2.3937745E-25
   6.420000     -2.6068998E-25
   6.430000     -2.8265838E-25
   6.440000     -3.0524928E-25
   6.450000     -3.2842451E-25
   6.460000     -3.5214080E-25
   6.470000     -3.7634969E-25
   6.480000     -4.0099725E-25
   6.490000     -4.2602399E-25
   6.500000     -4.5136452E-25
   6.510000     -4.7694752E-25
   6.520000     -5.0269545E-25
   6.530000     -5.2852453E-25
   6.540000     -5.5434439E-25
   6.550000     -5.8005815E-25
   6.560000     -6.0556222E-25
   6.570000     -6.3074601E-25
   6.580000     -6.5549214E-25
   6.590000     -6.7967634E-25
   6.600000     -7.0316709E-25
   6.610000     -7.2582599E-25
   6.620000     -7.4750763E-25
   6.630000     -7.6805958E-25
   6.640000     -7.8732258E-25
   6.650000     -8.0513032E-25
   6.660000     -8.2131006E-25
   6.670000     -8.3568227E-25
   6.680000     -8.4806117E-25
   6.690000     -8.5825483E-25
   6.700000     -8.6606554E-25
   6.710000     -8.7128967E-25
   6.720000     -8.7371877E-25
   6.730000     -8.7313955E-25
   6.740000     -8.6933399E-25
   6.750000     -8.6208061E-25
   6.760000     -8.5115419E-25
   6.770000     -8.3632696E-25
   6.780000     -8.1736866E-25
   6.790000     -7.9404776E-25
   6.800000     -7.6613170E-25
   6.810000     -7.3338811E-25
   6.820000     -6.9558530E-25
   6.830000     -6.5249377E-25
   6.840000     -6.0388638E-25
   6.850000     -5.4953978E-25
   6.860000     -4.8923556E-25
   6.870000     -4.2276096E-25
   6.880000     -3.4991022E-25
   6.890000     -2.7048603E-25
   6.900000     -1.8430049E-25
   6.910000     -9.1176661E-26
   6.920000      9.0500403E-27
   6.930000      1.1653048E-25
   6.940000      2.3140074E-25
   6.950000      3.5378008E-25
   6.960000      4.8376964E-25
   6.970000      6.2145082E-25
   6.980000      7.6688329E-25
   6.990000      9.2010389E-25
   7.000000      1.0811238E-24
   7.010000      1.2499280E-24
   7.020000      1.4264735E-24
   7.030000      1.6106863E-24
   7.040000      1.8024606E-24
   7.050000      2.0016570E-24
   7.060000      2.2081008E-24