  -2.600000      0.0000000E+00
  -2.590000      0.0000000E+00
  -2.580000      0.0000000E+00
  -2.570000      0.0000000E+00
  -2.560000      0.0000000E+00
  -2.550000      0.0000000E+00
  -2.540000      0.0000000E+00
  -2.530000      0.0000000E+00
  -2.520000      0.0000000E+00
  -2.510000      0.0000000E+00
  -2.500000      0.0000000E+00
  -2.490000      0.0000000E+00
  -2.480000      0.0000000E+00
  -2.470000      0.0000000E+00
  -2.460000      0.0000000E+00
  -2.450000      0.0000000E+00
  -2.440000      0.0000000E+00
  -2.430000      0.0000000E+00
  -2.420000      0.0000000E+00
  -2.410000      0.0000000E+00
  -2.400000      0.0000000E+00
  -2.390000      0.0000000E+00
  -2.380000      0.0000000E+00
  -2.370000      0.0000000E+00
  -2.360000      0.0000000E+00
  -2.350000      0.0000000E+00
  -2.340000      0.0000000E+00
  -2.330000      0.0000000E+00
  -2.320000      0.0000000E+00
  -2.310000      0.0000000E+00
  -2.300000      0.0000000E+00
  -2.290000      0.0000000E+00
  -2.280000      0.0000000E+00
  -2.270000      0.0000000E+00
  -2.260000      0.0000000E+00
  -2.250000      0.0000000E+00
  -2.240000      0.0000000E+00
  -2.230000      0.0000000E+00
  -2.220000      0.0000000E+00
  -2.210000      0.0000000E+00
  -2.200000      0.0000000E+00
  -2.190000      0.0000000E+00
  -2.180000      0.0000000E+00
  -2.170000      0.0000000E+00
  -2.160000      0.0000000E+00
  -2.150000      0.0000000E+00
  -2.140000      0.0000000E+00
  -2.130000      0.0000000E+00
  -2.120000      0.0000000E+00
  -2.110000      0.0000000E+00
  -2.100000      0.0000000E+00
  -2.090000      0.0000000E+00
  -2.080000      0.0000000E+00
  -2.070000      0.0000000E+00
  -2.060000      0.0000000E+00
  -2.050000      0.0000000E+00
  -2.040000      0.0000000E+00
  -2.030000      0.0000000E+00
  -2.020000      0.0000000E+00
  -2.010000      0.0000000E+00
  -2.000000      0.0000000E+00
  -1.990000      0.0000000E+00
  -1.980000      0.0000000E+00
  -1.970000      0.0000000E+00
  -1.960000      0.0000000E+00
  -1.950000      0.0000000E+00
  -1.940000      0.0000000E+00
  -1.930000      0.0000000E+00
  -1.920000      0.0000000E+00
  -1.910000      0.0000000E+00
  -1.900000      0.0000000E+00
  -1.890000      0.0000000E+00
  -1.880000      0.0000000E+00
  -1.870000      0.0000000E+00
  -1.860000      0.0000000E+00
  -1.850000      0.0000000E+00
  -1.840000      0.0000000E+00
  -1.830000      0.0000000E+00
  -1.820000      0.0000000E+00
  -1.810000      0.0000000E+00
  -1.800000      0.0000000E+00
  -1.790000      0.0000000E+00
  -1.780000      0.0000000E+00
  -1.770000      0.0000000E+00
  -1.760000      0.0000000E+00
  -1.750000      0.0000000E+00
  -1.740000      0.0000000E+00
  -1.730000      0.0000000E+00
  -1.720000      0.0000000E+00
  -1.710000      0.0000000E+00
  -1.700000      0.0000000E+00
  -1.690000      0.0000000E+00
  -1.680000      0.0000000E+00
  -1.670000      0.0000000E+00
  -1.660000      0.0000000E+00
  -1.650000      0.0000000E+00
  -1.640000      0.0000000E+00
  -1.630000      0.0000000E+00
  -1.620000      0.0000000E+00
  -1.610000      0.0000000E+00
  -1.600000      0.0000000E+00
  -1.590000      0.0000000E+00
  -1.580000      0.0000000E+00
  -1.570000      0.0000000E+00
  -1.560000      0.0000000E+00
  -1.550000      0.0000000E+00
  -1.540000      0.0000000E+00
  -1.530000      0.0000000E+00
  -1.520000      0.0000000E+00
  -1.510000      0.0000000E+00
  -1.500000      0.0000000E+00
  -1.490000      0.0000000E+00
  -1.480000      0.0000000E+00
  -1.470000      0.0000000E+00
  -1.460000      0.0000000E+00
  -1.450000      0.0000000E+00
  -1.440000      0.0000000E+00
  -1.430000      0.0000000E+00
  -1.420000      0.0000000E+00
  -1.410000      0.0000000E+00
  -1.400000      0.0000000E+00
  -1.390000      0.0000000E+00
  -1.380000      0.0000000E+00
  -1.370000      0.0000000E+00
  -1.360000      0.0000000E+00
  -1.350000      0.0000000E+00
  -1.340000      0.0000000E+00
  -1.330000      0.0000000E+00
  -1.320000      0.0000000E+00
  -1.310000      0.0000000E+00
  -1.300000      0.0000000E+00
  -1.290000      0.0000000E+00
  -1.280000      0.0000000E+00
  -1.270000      0.0000000E+00
  -1.260000      0.0000000E+00
  -1.250000      0.0000000E+00
  -1.240000      0.0000000E+00
  -1.230000      0.0000000E+00
  -1.220000      0.0000000E+00
  -1.210000      0.0000000E+00
  -1.200000      0.0000000E+00
  -1.190000      0.0000000E+00
  -1.180000      0.0000000E+00
  -1.170000      0.0000000E+00
  -1.160000      0.0000000E+00
  -1.150000      0.0000000E+00
  -1.140000      0.0000000E+00
  -1.130000      0.0000000E+00
  -1.120000      0.0000000E+00
  -1.110000      0.0000000E+00
  -1.100000      0.0000000E+00
  -1.090000      0.0000000E+00
  -1.080000      0.0000000E+00
  -1.070000      0.0000000E+00
  -1.060000      0.0000000E+00
  -1.050000      0.0000000E+00
  -1.040000      0.0000000E+00
  -1.030000      0.0000000E+00
  -1.020000      0.0000000E+00
  -1.010000      0.0000000E+00
  -1.000000      0.0000000E+00
 -0.9900000      0.0000000E+00
 -0.9800000      0.0000000E+00
 -0.9700000      0.0000000E+00
 -0.9600000      0.0000000E+00
 -0.9500000      0.0000000E+00
 -0.9400000      0.0000000E+00
 -0.9300000      0.0000000E+00
 -0.9200000      0.0000000E+00
 -0.9100000      0.0000000E+00
 -0.9000000      0.0000000E+00
 -0.8900000      0.0000000E+00
 -0.8800000      0.0000000E+00
 -0.8700000      0.0000000E+00
 -0.8600000      0.0000000E+00
 -0.8500000      0.0000000E+00
 -0.8400000      0.0000000E+00
 -0.8300000      0.0000000E+00
 -0.8200000      0.0000000E+00
 -0.8100000      0.0000000E+00
 -0.8000000      0.0000000E+00
 -0.7900000      0.0000000E+00
 -0.7800000      0.0000000E+00
 -0.7700000      0.0000000E+00
 -0.7600000      0.0000000E+00
 -0.7500000      0.0000000E+00
 -0.7400000      0.0000000E+00
 -0.7300000      0.0000000E+00
 -0.7200000      0.0000000E+00
 -0.7100000      0.0000000E+00
 -0.7000000      0.0000000E+00
 -0.6900000      0.0000000E+00
 -0.6800000      0.0000000E+00
 -0.6700000      0.0000000E+00
 -0.6600000      0.0000000E+00
 -0.6500000      0.0000000E+00
 -0.6400000      0.0000000E+00
 -0.6300000      0.0000000E+00
 -0.6200000      0.0000000E+00
 -0.6100000      0.0000000E+00
 -0.6000000      0.0000000E+00
 -0.5900000      0.0000000E+00
 -0.5800000      0.0000000E+00
 -0.5700000      0.0000000E+00
 -0.5600000      0.0000000E+00
 -0.5500000      0.0000000E+00
 -0.5400000      0.0000000E+00
 -0.5300000      0.0000000E+00
 -0.5200000      0.0000000E+00
 -0.5100000      0.0000000E+00
 -0.5000000      0.0000000E+00
 -0.4900000      0.0000000E+00
 -0.4800000      0.0000000E+00
 -0.4700000      0.0000000E+00
 -0.4600000      0.0000000E+00
 -0.4500000      0.0000000E+00
 -0.4400000      0.0000000E+00
 -0.4300000      0.0000000E+00
 -0.4200000      0.0000000E+00
 -0.4100000      0.0000000E+00
 -0.4000000      0.0000000E+00
 -0.3900000      0.0000000E+00
 -0.3800000      0.0000000E+00
 -0.3700000      0.0000000E+00
 -0.3600000      0.0000000E+00
 -0.3500000      0.0000000E+00
 -0.3400000      0.0000000E+00
 -0.3300000      0.0000000E+00
 -0.3200000      0.0000000E+00
 -0.3100000      0.0000000E+00
 -0.3000000      0.0000000E+00
 -0.2900000      0.0000000E+00
 -0.2800000      0.0000000E+00
 -0.2700000      0.0000000E+00
 -0.2600000      0.0000000E+00
 -0.2500000      0.0000000E+00
 -0.2400000      0.0000000E+00
 -0.2300000      0.0000000E+00
 -0.2200000      0.0000000E+00
 -0.2100000      0.0000000E+00
 -0.2000000      0.0000000E+00
 -0.1900000      0.0000000E+00
 -0.1800000      0.0000000E+00
 -0.1700000      0.0000000E+00
 -0.1600000      0.0000000E+00
 -0.1500000      0.0000000E+00
 -0.1400000      0.0000000E+00
 -0.1300000      0.0000000E+00
 -0.1200000      0.0000000E+00
 -0.1100000      0.0000000E+00
 -0.1000000      0.0000000E+00
 -9.0000004E-02  0.0000000E+00
 -7.9999998E-02  0.0000000E+00
 -7.0000000E-02  0.0000000E+00
 -5.9999999E-02  0.0000000E+00
 -5.0000001E-02  0.0000000E+00
 -3.9999999E-02  0.0000000E+00
 -2.9999999E-02  0.0000000E+00
 -2.0000000E-02  0.0000000E+00
 -9.9999998E-03  0.0000000E+00
 -3.4694470E-17  0.0000000E+00
  9.9999998E-03  0.0000000E+00
  2.0000000E-02  0.0000000E+00
  2.9999999E-02  0.0000000E+00
  3.9999999E-02  0.0000000E+00
  5.0000001E-02  0.0000000E+00
  5.9999999E-02  0.0000000E+00
  7.0000000E-02  0.0000000E+00
  7.9999998E-02  0.0000000E+00
  9.0000004E-02  0.0000000E+00
  0.1000000      0.0000000E+00
  0.1100000      0.0000000E+00
  0.1200000      0.0000000E+00
  0.1300000      0.0000000E+00
  0.1400000      0.0000000E+00
  0.1500000      0.0000000E+00
  0.1600000      0.0000000E+00
  0.1700000      0.0000000E+00
  0.1800000      0.0000000E+00
  0.1900000      0.0000000E+00
  0.2000000      0.0000000E+00
  0.2100000      0.0000000E+00
  0.2200000      0.0000000E+00
  0.2300000      0.0000000E+00
  0.2400000      0.0000000E+00
  0.2500000      0.0000000E+00
  0.2600000      0.0000000E+00
  0.2700000      0.0000000E+00
  0.2800000      0.0000000E+00
  0.2900000      0.0000000E+00
  0.3000000      0.0000000E+00
  0.3100000      0.0000000E+00
  0.3200000      0.0000000E+00
  0.3300000      0.0000000E+00
  0.3400000      0.0000000E+00
  0.3500000      0.0000000E+00
  0.3600000      0.0000000E+00
  0.3700000      0.0000000E+00
  0.3800000      0.0000000E+00
  0.3900000      0.0000000E+00
  0.4000000      0.0000000E+00
  0.4100000      0.0000000E+00
  0.4200000      0.0000000E+00
  0.4300000      0.0000000E+00
  0.4400000      0.0000000E+00
  0.4500000      0.0000000E+00
  0.4600000      0.0000000E+00
  0.4700000      0.0000000E+00
  0.4800000      0.0000000E+00
  0.4900000      0.0000000E+00
  0.5000000      0.0000000E+00
  0.5100000      0.0000000E+00
  0.5200000      0.0000000E+00
  0.5300000      0.0000000E+00
  0.5400000      0.0000000E+00
  0.5500000      0.0000000E+00
  0.5600000      0.0000000E+00
  0.5700000      0.0000000E+00
  0.5800000      0.0000000E+00
  0.5900000      0.0000000E+00
  0.6000000      0.0000000E+00
  0.6100000      0.0000000E+00
  0.6200000      0.0000000E+00
  0.6300000      0.0000000E+00
  0.6400000      0.0000000E+00
  0.6500000      0.0000000E+00
  0.6600000      0.0000000E+00
  0.6700000      0.0000000E+00
  0.6800000      0.0000000E+00
  0.6900000      0.0000000E+00
  0.7000000      0.0000000E+00
  0.7100000      0.0000000E+00
  0.7200000      0.0000000E+00
  0.7300000      0.0000000E+00
  0.7400000      0.0000000E+00
  0.7500000      0.0000000E+00
  0.7600000      0.0000000E+00
  0.7700000      0.0000000E+00
  0.7800000      0.0000000E+00
  0.7900000      0.0000000E+00
  0.8000000      0.0000000E+00
  0.8100000      0.0000000E+00
  0.8200000      0.0000000E+00
  0.8300000      0.0000000E+00
  0.8400000      0.0000000E+00
  0.8500000      0.0000000E+00
  0.8600000      0.0000000E+00
  0.8700000      0.0000000E+00
  0.8800000      0.0000000E+00
  0.8900000      0.0000000E+00
  0.9000000      0.0000000E+00
  0.9100000      0.0000000E+00
  0.9200000      0.0000000E+00
  0.9300000      0.0000000E+00
  0.9400000      0.0000000E+00
  0.9500000      0.0000000E+00
  0.9600000      0.0000000E+00
  0.9700000      0.0000000E+00
  0.9800000      0.0000000E+00
  0.9900000      0.0000000E+00
   1.000000      0.0000000E+00
   1.010000      0.0000000E+00
   1.020000      0.0000000E+00
   1.030000      0.0000000E+00
   1.040000      0.0000000E+00
   1.050000      0.0000000E+00
   1.060000      0.0000000E+00
   1.070000      0.0000000E+00
   1.080000      0.0000000E+00
   1.090000      0.0000000E+00
   1.100000      0.0000000E+00
   1.110000      0.0000000E+00
   1.120000      0.0000000E+00
   1.130000      0.0000000E+00
   1.140000      0.0000000E+00
   1.150000      0.0000000E+00
   1.160000      0.0000000E+00
   1.170000      0.0000000E+00
   1.180000      0.0000000E+00
   1.190000      0.0000000E+00
   1.200000      0.0000000E+00
   1.210000      0.0000000E+00
   1.220000      0.0000000E+00
   1.230000      0.0000000E+00
   1.240000      0.0000000E+00
   1.250000      0.0000000E+00
   1.260000      0.0000000E+00
   1.270000      0.0000000E+00
   1.280000      0.0000000E+00
   1.290000      0.0000000E+00
   1.300000      0.0000000E+00
   1.310000      0.0000000E+00
   1.320000      0.0000000E+00
   1.330000      0.0000000E+00
   1.340000      0.0000000E+00
   1.350000      0.0000000E+00
   1.360000      0.0000000E+00
   1.370000      0.0000000E+00
   1.380000      0.0000000E+00
   1.390000      0.0000000E+00
   1.400000      0.0000000E+00
   1.410000      0.0000000E+00
   1.420000      0.0000000E+00
   1.430000      0.0000000E+00
   1.440000      0.0000000E+00
   1.450000      0.0000000E+00
   1.460000      0.0000000E+00
   1.470000      0.0000000E+00
   1.480000      0.0000000E+00
   1.490000      0.0000000E+00
   1.500000      0.0000000E+00
   1.510000      0.0000000E+00
   1.520000      0.0000000E+00
   1.530000      0.0000000E+00
   1.540000      0.0000000E+00
   1.550000      0.0000000E+00
   1.560000      0.0000000E+00
   1.570000      0.0000000E+00
   1.580000      0.0000000E+00
   1.590000      0.0000000E+00
   1.600000      0.0000000E+00
   1.610000      0.0000000E+00
   1.620000      0.0000000E+00
   1.630000      0.0000000E+00
   1.640000      0.0000000E+00
   1.650000      0.0000000E+00
   1.660000      0.0000000E+00
   1.670000      0.0000000E+00
   1.680000      0.0000000E+00
   1.690000      0.0000000E+00
   1.700000      0.0000000E+00
   1.710000      0.0000000E+00
   1.720000      0.0000000E+00
   1.730000      0.0000000E+00
   1.740000      0.0000000E+00
   1.750000      0.0000000E+00
   1.760000      0.0000000E+00
   1.770000      0.0000000E+00
   1.780000      0.0000000E+00
   1.790000      0.0000000E+00
   1.800000      0.0000000E+00
   1.810000      0.0000000E+00
   1.820000      0.0000000E+00
   1.830000      0.0000000E+00
   1.840000      0.0000000E+00
   1.850000      0.0000000E+00
   1.860000      0.0000000E+00
   1.870000      0.0000000E+00
   1.880000      0.0000000E+00
   1.890000      0.0000000E+00
   1.900000      0.0000000E+00
   1.910000      0.0000000E+00
   1.920000      0.0000000E+00
   1.930000      0.0000000E+00
   1.940000      0.0000000E+00
   1.950000      0.0000000E+00
   1.960000      0.0000000E+00
   1.970000      0.0000000E+00
   1.980000      0.0000000E+00
   1.990000      0.0000000E+00
   2.000000      0.0000000E+00
   2.010000      0.0000000E+00
   2.020000      0.0000000E+00
   2.030000      0.0000000E+00
   2.040000      0.0000000E+00
   2.050000      0.0000000E+00
   2.060000      0.0000000E+00
   2.070000      0.0000000E+00
   2.080000      0.0000000E+00
   2.090000      0.0000000E+00
   2.100000      0.0000000E+00
   2.110000      0.0000000E+00
   2.120000      0.0000000E+00
   2.130000      0.0000000E+00
   2.140000      0.0000000E+00
   2.150000      0.0000000E+00
   2.160000      0.0000000E+00
   2.170000      0.0000000E+00
   2.180000      0.0000000E+00
   2.190000      0.0000000E+00
   2.200000      0.0000000E+00
   2.210000      0.0000000E+00
   2.220000      0.0000000E+00
   2.230000      0.0000000E+00
   2.240000      0.0000000E+00
   2.250000      0.0000000E+00
   2.260000      0.0000000E+00
   2.270000      0.0000000E+00
   2.280000      0.0000000E+00
   2.290000      0.0000000E+00
   2.300000      0.0000000E+00
   2.310000      0.0000000E+00
   2.320000      0.0000000E+00
   2.330000      0.0000000E+00
   2.340000      1.2481913E-38
   2.350000      1.6164771E-38
   2.360000      1.9641007E-38
   2.370000      2.3198963E-38
   2.380000      2.6946218E-38
   2.390000      3.1518131E-38
   2.400000      3.8292232E-38
   2.410000      4.6690262E-38
   2.420000      5.5404875E-38
   2.430000      6.5430431E-38
   2.440000      7.6343150E-38
   2.450000      8.7788244E-38
   2.460000      9.9704448E-38
   2.470000      1.1079953E-37
   2.480000      1.2074076E-37
   2.490000      1.2891252E-37
   2.500000      1.3491799E-37
   2.510000      1.4170780E-37
   2.520000      1.4968893E-37
   2.530000      1.5717205E-37
   2.540000      1.6390373E-37
   2.550000      1.7047152E-37
   2.560000      1.7579794E-37
   2.570000      1.7812955E-37
   2.580000      2.3673200E-37
   2.590000      3.5136310E-37
   2.600000      4.7137322E-37
   2.610000      5.8991159E-37
   2.620000      7.0384756E-37
   2.630000      8.9047150E-37
   2.640000      1.1530151E-36
   2.650000      1.4302095E-36
   2.660000      1.7011756E-36
   2.670000      1.6245251E-36
   2.680000      1.1523971E-36
   2.690000      5.7749873E-37
   2.700000     -2.5125363E-38
   2.710000     -5.9614434E-37
   2.720000     -1.1061393E-36
   2.730000     -1.5078206E-36
   2.740000     -1.5127719E-36
   2.750000     -1.1899932E-36
   2.760000     -9.3867204E-37
   2.770000     -7.4966800E-37
   2.780000     -5.4890704E-37
   2.790000     -3.4285547E-37
   2.800000     -1.2367775E-37
   2.810000     -5.7690785E-37
   2.820000     -1.6971196E-36
   2.830000     -2.7991402E-36
   2.840000     -3.6069848E-36
   2.850000     -4.2257332E-36
   2.860000     -4.9371340E-36
   2.870000     -5.2726532E-36
   2.880000     -5.3132219E-36
   2.890000     -5.4722706E-36
   2.900000     -5.7563924E-36
   2.910000     -6.1938084E-36
   2.920000     -6.8028564E-36
   2.930000     -7.6921433E-36
   2.940000     -8.8409551E-36
   2.950000     -1.0147186E-35
   2.960000     -1.1145624E-35
   2.970000     -1.1211482E-35
   2.980000     -1.0471944E-35
   2.990000     -9.1580394E-36
   3.000000     -7.3609616E-36
   3.010000     -5.2596560E-36
   3.020000     -2.9615561E-36
   3.030000     -6.0037953E-37
   3.040000      1.6178554E-36
   3.050000      3.6824387E-36
   3.060000      5.6526272E-36
   3.070000      7.3870816E-36
   3.080000      8.7093470E-36
   3.090000      9.6319924E-36
   3.100000      1.0242213E-35
   3.110000      1.0713111E-35
   3.120000      1.1347751E-35
   3.130000      1.2311234E-35
   3.140000      1.3741367E-35
   3.150000      1.5780052E-35
   3.160000      1.8640214E-35
   3.170000      2.2137826E-35
   3.180000      2.5837667E-35
   3.190000      2.9699731E-35
   3.200000      3.3608818E-35
   3.210000      3.7186729E-35
   3.220000      4.0217921E-35
   3.230000      4.2376623E-35
   3.240000      4.3806439E-35
   3.250000      4.4931515E-35
   3.260000      4.5233137E-35
   3.270000      4.4655512E-35
   3.280000      4.3454126E-35
   3.290000      4.2079808E-35
   3.300000      4.0927381E-35
   3.310000      3.9797785E-35
   3.320000      3.8787454E-35
   3.330000      3.7372504E-35
   3.340000      3.4518779E-35
   3.350000      3.0147894E-35
   3.360000      2.5287719E-35
   3.370000      2.2106679E-35
   3.380000      2.0636488E-35
   3.390000      1.9272376E-35
   3.400000      2.0372586E-35
   3.410000      2.3733036E-35
   3.420000      2.6169664E-35
   3.430000      2.6135165E-35
   3.440000      2.0813029E-35
   3.450000      1.2216428E-35
   3.460000      3.4989772E-36
   3.470000     -1.3487519E-35
   3.480000     -3.9217514E-35
   3.490000     -6.7449435E-35
   3.500000     -9.5758353E-35
   3.510000     -1.2306858E-34
   3.520000     -1.4725448E-34
   3.530000     -1.5740783E-34
   3.540000     -1.5836709E-34
   3.550000     -1.6086440E-34
   3.560000     -1.6706080E-34
   3.570000     -1.8022042E-34
   3.580000     -1.9618925E-34
   3.590000     -2.0802588E-34
   3.600000     -2.1668438E-34
   3.610000     -2.2552555E-34
   3.620000     -2.2765452E-34
   3.630000     -2.2377110E-34
   3.640000     -2.2901897E-34
   3.650000     -2.4528758E-34
   3.660000     -2.6312194E-34
   3.670000     -2.8032108E-34
   3.680000     -2.9859627E-34
   3.690000     -3.2172998E-34
   3.700000     -3.5730411E-34
   3.710000     -3.9410643E-34
   3.720000     -4.1853054E-34
   3.730000     -4.3296478E-34
   3.740000     -4.2738867E-34
   3.750000     -4.0076533E-34
   3.760000     -3.6329718E-34
   3.770000     -3.1633476E-34
   3.780000     -2.6432538E-34
   3.790000     -2.1399409E-34
   3.800000     -1.6766826E-34
   3.810000     -1.2292087E-34
   3.820000     -7.6233988E-35
   3.830000     -3.0206968E-35
   3.840000      6.9639732E-36
   3.850000      3.6214214E-35
   3.860000      6.7460898E-35
   3.870000      1.1062710E-34
   3.880000      1.6720381E-34
   3.890000      2.3428580E-34
   3.900000      3.1188065E-34
   3.910000      4.0209281E-34
   3.920000      5.0851087E-34
   3.930000      6.2515962E-34
   3.940000      7.4592032E-34
   3.950000      8.6423888E-34
   3.960000      9.7627414E-34
   3.970000      1.0810492E-33
   3.980000      1.1642846E-33
   3.990000      1.2382320E-33
   4.000000      1.3209188E-33
   4.010000      1.4081067E-33
   4.020000      1.5009733E-33
   4.030000      1.5949219E-33
   4.040000      1.6906891E-33
   4.050000      1.7904775E-33
   4.060000      1.8813106E-33
   4.070000      1.9592416E-33
   4.080000      2.0229734E-33
   4.090000      2.0723458E-33
   4.100000      2.1129663E-33
   4.110000      2.1420819E-33
   4.120000      2.1544459E-33
   4.130000      2.1536175E-33
   4.140000      2.1475290E-33
   4.150000      2.1352917E-33
   4.160000      2.1100258E-33
   4.170000      2.0694470E-33
   4.180000      2.0162867E-33
   4.190000      1.9514861E-33
   4.200000      1.8726429E-33
   4.210000      1.7772518E-33
   4.220000      1.6621722E-33
   4.230000      1.5226936E-33
   4.240000      1.3566353E-33
   4.250000      1.1647868E-33
   4.260000      9.4395888E-34
   4.270000      6.9053814E-34
   4.280000      4.0767283E-34
   4.290000      9.7497005E-35
   4.300000     -2.3947674E-34
   4.310000     -6.0086308E-34
   4.320000     -9.8578334E-34
   4.330000     -1.3924168E-33
   4.340000     -1.8178754E-33
   4.350000     -2.2603013E-33
   4.360000     -2.7186606E-33
   4.370000     -3.1950102E-33
   4.380000     -3.6883273E-33
   4.390000     -4.1979563E-33
   4.400000     -4.7268218E-33
   4.410000     -5.2759158E-33
   4.420000     -5.8485101E-33
   4.430000     -6.4405776E-33
   4.440000     -7.0456905E-33
   4.450000     -7.6648109E-33
   4.460000     -8.2946724E-33
   4.470000     -8.9280273E-33
   4.480000     -9.5572819E-33
   4.490000     -1.0175343E-32
   4.500000     -1.0777528E-32
   4.510000     -1.1358574E-32
   4.520000     -1.1910189E-32
   4.530000     -1.2426975E-32
   4.540000     -1.2904797E-32
   4.550000     -1.3339611E-32
   4.560000     -1.3729731E-32
   4.570000     -1.4071705E-32
   4.580000     -1.4364519E-32
   4.590000     -1.4608189E-32
   4.600000     -1.4796316E-32
   4.610000     -1.4922409E-32
   4.620000     -1.4981351E-32
   4.630000     -1.4965277E-32
   4.640000     -1.4865277E-32
   4.650000     -1.4671831E-32
   4.660000     -1.4374608E-32
   4.670000     -1.3963381E-32
   4.680000     -1.3429221E-32
   4.690000     -1.2764326E-32
   4.700000     -1.1962182E-32
   4.710000     -1.1017769E-32
   4.720000     -9.9276339E-33
   4.730000     -8.6892278E-33
   4.740000     -7.3026117E-33
   4.750000     -5.7682588E-33
   4.760000     -4.0861359E-33
   4.770000     -2.2543893E-33
   4.780000     -2.7046139E-34
   4.790000      1.8668118E-33
   4.800000      4.1601652E-33
   4.810000      6.6123445E-33
   4.820000      9.2277622E-33
   4.830000      1.2008967E-32
   4.840000      1.4954733E-32
   4.850000      1.8067198E-32
   4.860000      2.1345771E-32
   4.870000      2.4783897E-32
   4.880000      2.8373827E-32
   4.890000      3.2105019E-32
   4.900000      3.5964391E-32
   4.910000      3.9936845E-32
   4.920000      4.4005795E-32
   4.930000      4.8153838E-32
   4.940000      5.2363042E-32
   4.950000      5.6615434E-32
   4.960000      6.0893417E-32
   4.970000      6.5179587E-32
   4.980000      6.9456429E-32
   4.990000      7.3705953E-32
   5.000000      7.7909162E-32
   5.010000      8.2045391E-32
   5.020000      8.6091631E-32
   5.030000      9.0022073E-32
   5.040000      9.3807688E-32
   5.050000      9.7416114E-32
   5.060000      1.0081178E-31
   5.070000      1.0395624E-31
   5.080000      1.0680874E-31
   5.090000      1.0932695E-31
   5.100000      1.1146771E-31
   5.110000      1.1318774E-31
   5.120000      1.1444425E-31
   5.130000      1.1519535E-31
   5.140000      1.1540027E-31
   5.150000      1.1501921E-31
   5.160000      1.1401320E-31
   5.170000      1.1234366E-31
   5.180000      1.0997257E-31
   5.190000      1.0685981E-31
   5.200000      1.0296423E-31
   5.210000      9.8244985E-32
   5.220000      9.2659394E-32
   5.230000      8.6163953E-32
   5.240000      7.8714875E-32
   5.250000      7.0269013E-32
   5.260000      6.0784637E-32
   5.270000      5.0222555E-32
   5.280000      3.8547193E-32
   5.290000      2.5727345E-32
   5.300000      1.1736890E-32
   5.310000     -3.4447913E-33
   5.320000     -1.9832639E-32
   5.330000     -3.7435913E-32
   5.340000     -5.6258531E-32
   5.350000     -7.6299505E-32
   5.360000     -9.7553271E-32
   5.370000     -1.2000992E-31
   5.380000     -1.4365538E-31
   5.390000     -1.6847130E-31
   5.400000     -1.9443458E-31
   5.410000     -2.2151667E-31
   5.420000     -2.4968273E-31
   5.430000     -2.7889043E-31
   5.440000     -3.0908879E-31
   5.450000     -3.4021703E-31
   5.460000     -3.7220374E-31
   5.470000     -4.0496575E-31
   5.480000     -4.3840791E-31
   5.490000     -4.7242267E-31
   5.500000     -5.0689047E-31
   5.510000     -5.4167969E-31
   5.520000     -5.7664759E-31
   5.530000     -6.1164056E-31
   5.540000     -6.4649476E-31
   5.550000     -6.8103662E-31
   5.560000     -7.1508279E-31
   5.570000     -7.4844036E-31
   5.580000     -7.8090652E-31
   5.590000     -8.1226791E-31
   5.600000     -8.4230001E-31
   5.610000     -8.7076662E-31
   5.620000     -8.9741931E-31
   5.630000     -9.2199645E-31
   5.640000     -9.4422355E-31
   5.650000     -9.6381340E-31
   5.660000     -9.8046677E-31
   5.670000     -9.9387286E-31
   5.680000     -1.0037109E-30
   5.690000     -1.0096516E-30
   5.700000     -1.0113587E-30
   5.710000     -1.0084908E-30
   5.720000     -1.0007029E-30
   5.730000     -9.8764753E-31
   5.740000     -9.6897589E-31
   5.750000     -9.4433950E-31
   5.760000     -9.1339061E-31
   5.770000     -8.7578288E-31
   5.780000     -8.3117184E-31
   5.790000     -7.7921616E-31
   5.800000     -7.1957844E-31
   5.810000     -6.5192649E-31
   5.820000     -5.7593506E-31
   5.830000     -4.9128827E-31
   5.840000     -3.9768192E-31
   5.850000     -2.9482668E-31
   5.860000     -1.8245079E-31
   5.870000     -6.0304183E-32
   5.880000      7.1838345E-32
   5.890000      2.1417401E-31
   5.900000      3.6686864E-31
   5.910000      5.3005321E-31
   5.920000      7.0382118E-31
   5.930000      8.8822582E-31
   5.940000      1.0832782E-30
   5.950000      1.2889447E-30
   5.960000      1.5051443E-30
   5.970000      1.7317466E-30
   5.980000      1.9685684E-30
   5.990000      2.2153709E-30
   6.000000      2.4718560E-30
   6.010000      2.7376637E-30
   6.020000      3.0123662E-30
   6.030000      3.2954655E-30
   6.040000      3.5863889E-30
   6.050000      3.8844845E-30
   6.060000      4.1890165E-30
   6.070000      4.4991634E-30
   6.080000      4.8140154E-30
   6.090000      5.1325687E-30
   6.100000      5.4537258E-30
   6.110000      5.7762935E-30
   6.120000      6.0989800E-30
   6.130000      6.4203974E-30
   6.140000      6.7390553E-30
   6.150000      7.0533656E-30
   6.160000      7.3616393E-30
   6.170000      7.6620828E-30
   6.180000      7.9528020E-30
   6.190000      8.2317992E-30
   6.200000      8.4969750E-30
   6.210000      8.7461248E-30
   6.220000      8.9769430E-30
   6.230000      9.1870214E-30
   6.240000      9.3738539E-30
   6.250000      9.5348360E-30
   6.260000      9.6672731E-30
   6.270000      9.7683806E-30
   6.280000      9.8352931E-30
   6.290000      9.8650676E-30
   6.300000      9.8546961E-30
   6.310000      9.8011101E-30
   6.320000      9.7011920E-30
   6.330000      9.5517805E-30
   6.340000      9.3496857E-30
   6.350000      9.0916939E-30
   6.360000      8.7745820E-30
   6.370000      8.3951331E-30
   6.380000      7.9501440E-30
   6.390000      7.4364413E-30
   6.400000      6.8508969E-30
   6.410000      6.1904429E-30
   6.420000      5.4520857E-30
   6.430000      4.6329283E-30
   6.440000      3.7301908E-30
   6.450000      2.7412306E-30
   6.460000      1.6635634E-30
   6.470000      4.9488519E-31
   6.480000     -7.6689872E-31
   6.490000     -2.1236524E-30
   6.500000     -3.5769823E-30
   6.510000     -5.1282102E-30
   6.520000     -6.7783450E-30
   6.530000     -8.5280607E-30
   6.540000     -1.0377663E-29
   6.550000     -1.2327062E-29
   6.560000     -1.4375750E-29
   6.570000     -1.6522773E-29
   6.580000     -1.8766687E-29
   6.590000     -2.1105547E-29
   6.600000     -2.3536856E-29
   6.610000     -2.6057546E-29
   6.620000     -2.8663958E-29
   6.630000     -3.1351792E-29
   6.640000     -3.4116089E-29
   6.650000     -3.6951181E-29
   6.660000     -3.9850686E-29
   6.670000     -4.2807479E-29
   6.680000     -4.5813642E-29
   6.690000     -4.8860461E-29
   6.700000     -5.1938400E-29
   6.710000     -5.5037071E-29
   6.720000     -5.8145209E-29
   6.730000     -6.1250687E-29
   6.740000     -6.4340450E-29
   6.750000     -6.7400561E-29
   6.760000     -7.0416140E-29
   6.770000     -7.3371407E-29
   6.780000     -7.6249619E-29
   6.790000     -7.9033135E-29
   6.800000     -8.1703353E-29
   6.810000     -8.4240784E-29
   6.820000     -8.6625007E-29
   6.830000     -8.8834710E-29
   6.840000     -9.0847716E-29
   6.850000     -9.2640998E-29
   6.860000     -9.4190728E-29
   6.870000     -9.5472314E-29
   6.880000     -9.6460406E-29
   6.890000     -9.7129005E-29
   6.900000     -9.7451495E-29
   6.910000     -9.7400705E-29
   6.920000     -9.6948984E-29
   6.930000     -9.6068293E-29
   6.940000     -9.4730241E-29
   6.950000     -9.2906265E-29
   6.960000     -9.0567656E-29
   6.970000     -8.7685731E-29
   6.980000     -8.4231888E-29
   6.990000     -8.0177746E-29
   7.000000     -7.5495286E-29
   7.010000     -7.0157000E-29
   7.020000     -6.4136049E-29
   7.030000     -5.7406386E-29
   7.040000     -4.9942941E-29
   7.050000     -4.1721778E-29
   7.060000     -3.2720289E-29