  -2.600000      0.0000000E+00
  -2.590000      0.0000000E+00
  -2.580000      0.0000000E+00
  -2.570000      0.0000000E+00
  -2.560000      0.0000000E+00
  -2.550000      0.0000000E+00
  -2.540000      0.0000000E+00
  -2.530000      0.0000000E+00
  -2.520000      0.0000000E+00
  -2.510000      0.0000000E+00
  -2.500000      0.0000000E+00
  -2.490000      0.0000000E+00
  -2.480000      0.0000000E+00
  -2.470000      0.0000000E+00
  -2.460000      0.0000000E+00
  -2.450000      0.0000000E+00
  -2.440000      0.0000000E+00
  -2.430000      0.0000000E+00
  -2.420000      0.0000000E+00
  -2.410000      0.0000000E+00
  -2.400000      0.0000000E+00
  -2.390000      0.0000000E+00
  -2.380000      0.0000000E+00
  -2.370000      0.0000000E+00
  -2.360000      0.0000000E+00
  -2.350000      0.0000000E+00
  -2.340000      0.0000000E+00
  -2.330000      0.0000000E+00
  -2.320000      0.0000000E+00
  -2.310000      0.0000000E+00
  -2.300000      0.0000000E+00
  -2.290000      0.0000000E+00
  -2.280000      0.0000000E+00
  -2.270000      0.0000000E+00
  -2.260000      0.0000000E+00
  -2.250000      0.0000000E+00
  -2.240000      0.0000000E+00
  -2.230000      0.0000000E+00
  -2.220000      0.0000000E+00
  -2.210000      0.0000000E+00
  -2.200000      0.0000000E+00
  -2.190000      0.0000000E+00
  -2.180000      0.0000000E+00
  -2.170000      0.0000000E+00
  -2.160000      0.0000000E+00
  -2.150000      0.0000000E+00
  -2.140000      0.0000000E+00
  -2.130000      0.0000000E+00
  -2.120000      0.0000000E+00
  -2.110000      0.0000000E+00
  -2.100000      0.0000000E+00
  -2.090000      0.0000000E+00
  -2.080000      0.0000000E+00
  -2.070000      0.0000000E+00
  -2.060000      0.0000000E+00
  -2.050000      0.0000000E+00
  -2.040000      0.0000000E+00
  -2.030000      0.0000000E+00
  -2.020000      0.0000000E+00
  -2.010000      0.0000000E+00
  -2.000000      0.0000000E+00
  -1.990000      0.0000000E+00
  -1.980000      0.0000000E+00
  -1.970000      0.0000000E+00
  -1.960000      0.0000000E+00
  -1.950000      0.0000000E+00
  -1.940000      0.0000000E+00
  -1.930000      0.0000000E+00
  -1.920000      0.0000000E+00
  -1.910000      0.0000000E+00
  -1.900000      0.0000000E+00
  -1.890000      0.0000000E+00
  -1.880000      0.0000000E+00
  -1.870000      0.0000000E+00
  -1.860000      0.0000000E+00
  -1.850000      0.0000000E+00
  -1.840000      0.0000000E+00
  -1.830000      0.0000000E+00
  -1.820000      0.0000000E+00
  -1.810000      0.0000000E+00
  -1.800000      0.0000000E+00
  -1.790000      0.0000000E+00
  -1.780000      0.0000000E+00
  -1.770000      0.0000000E+00
  -1.760000      0.0000000E+00
  -1.750000      0.0000000E+00
  -1.740000      0.0000000E+00
  -1.730000      0.0000000E+00
  -1.720000      0.0000000E+00
  -1.710000      0.0000000E+00
  -1.700000      0.0000000E+00
  -1.690000      0.0000000E+00
  -1.680000      0.0000000E+00
  -1.670000      0.0000000E+00
  -1.660000      0.0000000E+00
  -1.650000      0.0000000E+00
  -1.640000      0.0000000E+00
  -1.630000      0.0000000E+00
  -1.620000      0.0000000E+00
  -1.610000      0.0000000E+00
  -1.600000      0.0000000E+00
  -1.590000      0.0000000E+00
  -1.580000      0.0000000E+00
  -1.570000      0.0000000E+00
  -1.560000      0.0000000E+00
  -1.550000      0.0000000E+00
  -1.540000      0.0000000E+00
  -1.530000      0.0000000E+00
  -1.520000      0.0000000E+00
  -1.510000      0.0000000E+00
  -1.500000      0.0000000E+00
  -1.490000      0.0000000E+00
  -1.480000      0.0000000E+00
  -1.470000      0.0000000E+00
  -1.460000      0.0000000E+00
  -1.450000      0.0000000E+00
  -1.440000      0.0000000E+00
  -1.430000      0.0000000E+00
  -1.420000      0.0000000E+00
  -1.410000      0.0000000E+00
  -1.400000      0.0000000E+00
  -1.390000      0.0000000E+00
  -1.380000      0.0000000E+00
  -1.370000      0.0000000E+00
  -1.360000      0.0000000E+00
  -1.350000      0.0000000E+00
  -1.340000      0.0000000E+00
  -1.330000      0.0000000E+00
  -1.320000      0.0000000E+00
  -1.310000      0.0000000E+00
  -1.300000      0.0000000E+00
  -1.290000      0.0000000E+00
  -1.280000      0.0000000E+00
  -1.270000      0.0000000E+00
  -1.260000      0.0000000E+00
  -1.250000      0.0000000E+00
  -1.240000      0.0000000E+00
  -1.230000      0.0000000E+00
  -1.220000      0.0000000E+00
  -1.210000      0.0000000E+00
  -1.200000      0.0000000E+00
  -1.190000      0.0000000E+00
  -1.180000      0.0000000E+00
  -1.170000      0.0000000E+00
  -1.160000      0.0000000E+00
  -1.150000      0.0000000E+00
  -1.140000      0.0000000E+00
  -1.130000      0.0000000E+00
  -1.120000      0.0000000E+00
  -1.110000      0.0000000E+00
  -1.100000      0.0000000E+00
  -1.090000      0.0000000E+00
  -1.080000      0.0000000E+00
  -1.070000      0.0000000E+00
  -1.060000      0.0000000E+00
  -1.050000      0.0000000E+00
  -1.040000      0.0000000E+00
  -1.030000      0.0000000E+00
  -1.020000      0.0000000E+00
  -1.010000      0.0000000E+00
  -1.000000      0.0000000E+00
 -0.9900000      0.0000000E+00
 -0.9800000      0.0000000E+00
 -0.9700000      0.0000000E+00
 -0.9600000      0.0000000E+00
 -0.9500000      0.0000000E+00
 -0.9400000      0.0000000E+00
 -0.9300000      0.0000000E+00
 -0.9200000      0.0000000E+00
 -0.9100000      0.0000000E+00
 -0.9000000      0.0000000E+00
 -0.8900000      0.0000000E+00
 -0.8800000      0.0000000E+00
 -0.8700000      0.0000000E+00
 -0.8600000      0.0000000E+00
 -0.8500000      0.0000000E+00
 -0.8400000      0.0000000E+00
 -0.8300000      0.0000000E+00
 -0.8200000      0.0000000E+00
 -0.8100000      0.0000000E+00
 -0.8000000      0.0000000E+00
 -0.7900000      0.0000000E+00
 -0.7800000      0.0000000E+00
 -0.7700000      0.0000000E+00
 -0.7600000      0.0000000E+00
 -0.7500000      0.0000000E+00
 -0.7400000      0.0000000E+00
 -0.7300000      0.0000000E+00
 -0.7200000      0.0000000E+00
 -0.7100000      0.0000000E+00
 -0.7000000      0.0000000E+00
 -0.6900000      0.0000000E+00
 -0.6800000      0.0000000E+00
 -0.6700000      0.0000000E+00
 -0.6600000      0.0000000E+00
 -0.6500000      0.0000000E+00
 -0.6400000      0.0000000E+00
 -0.6300000      0.0000000E+00
 -0.6200000      0.0000000E+00
 -0.6100000      0.0000000E+00
 -0.6000000      0.0000000E+00
 -0.5900000      0.0000000E+00
 -0.5800000      0.0000000E+00
 -0.5700000      0.0000000E+00
 -0.5600000      0.0000000E+00
 -0.5500000      0.0000000E+00
 -0.5400000      0.0000000E+00
 -0.5300000      0.0000000E+00
 -0.5200000      0.0000000E+00
 -0.5100000      0.0000000E+00
 -0.5000000      0.0000000E+00
 -0.4900000      0.0000000E+00
 -0.4800000      0.0000000E+00
 -0.4700000      0.0000000E+00
 -0.4600000      0.0000000E+00
 -0.4500000      0.0000000E+00
 -0.4400000      0.0000000E+00
 -0.4300000      0.0000000E+00
 -0.4200000      0.0000000E+00
 -0.4100000      0.0000000E+00
 -0.4000000      0.0000000E+00
 -0.3900000      0.0000000E+00
 -0.3800000      0.0000000E+00
 -0.3700000      0.0000000E+00
 -0.3600000      0.0000000E+00
 -0.3500000      0.0000000E+00
 -0.3400000      0.0000000E+00
 -0.3300000      0.0000000E+00
 -0.3200000      0.0000000E+00
 -0.3100000      0.0000000E+00
 -0.3000000      0.0000000E+00
 -0.2900000      0.0000000E+00
 -0.2800000      0.0000000E+00
 -0.2700000      0.0000000E+00
 -0.2600000      0.0000000E+00
 -0.2500000      0.0000000E+00
 -0.2400000      0.0000000E+00
 -0.2300000      0.0000000E+00
 -0.2200000      0.0000000E+00
 -0.2100000      0.0000000E+00
 -0.2000000      0.0000000E+00
 -0.1900000      0.0000000E+00
 -0.1800000      0.0000000E+00
 -0.1700000      0.0000000E+00
 -0.1600000      0.0000000E+00
 -0.1500000      0.0000000E+00
 -0.1400000      0.0000000E+00
 -0.1300000      0.0000000E+00
 -0.1200000      0.0000000E+00
 -0.1100000      0.0000000E+00
 -0.1000000      0.0000000E+00
 -9.0000004E-02  0.0000000E+00
 -7.9999998E-02  0.0000000E+00
 -7.0000000E-02  0.0000000E+00
 -5.9999999E-02  0.0000000E+00
 -5.0000001E-02  0.0000000E+00
 -3.9999999E-02  0.0000000E+00
 -2.9999999E-02  0.0000000E+00
 -2.0000000E-02  0.0000000E+00
 -9.9999998E-03  0.0000000E+00
 -3.4694470E-17  0.0000000E+00
  9.9999998E-03  0.0000000E+00
  2.0000000E-02  0.0000000E+00
  2.9999999E-02  0.0000000E+00
  3.9999999E-02  0.0000000E+00
  5.0000001E-02  0.0000000E+00
  5.9999999E-02  0.0000000E+00
  7.0000000E-02  0.0000000E+00
  7.9999998E-02  0.0000000E+00
  9.0000004E-02  0.0000000E+00
  0.1000000      0.0000000E+00
  0.1100000      0.0000000E+00
  0.1200000      0.0000000E+00
  0.1300000      0.0000000E+00
  0.1400000      0.0000000E+00
  0.1500000      0.0000000E+00
  0.1600000      0.0000000E+00
  0.1700000      0.0000000E+00
  0.1800000      0.0000000E+00
  0.1900000      0.0000000E+00
  0.2000000      0.0000000E+00
  0.2100000      0.0000000E+00
  0.2200000      0.0000000E+00
  0.2300000      0.0000000E+00
  0.2400000      0.0000000E+00
  0.2500000      0.0000000E+00
  0.2600000      0.0000000E+00
  0.2700000      0.0000000E+00
  0.2800000      0.0000000E+00
  0.2900000      0.0000000E+00
  0.3000000      0.0000000E+00
  0.3100000      0.0000000E+00
  0.3200000      0.0000000E+00
  0.3300000      0.0000000E+00
  0.3400000      0.0000000E+00
  0.3500000      0.0000000E+00
  0.3600000      0.0000000E+00
  0.3700000      0.0000000E+00
  0.3800000      0.0000000E+00
  0.3900000      0.0000000E+00
  0.4000000      0.0000000E+00
  0.4100000      0.0000000E+00
  0.4200000      0.0000000E+00
  0.4300000      0.0000000E+00
  0.4400000      0.0000000E+00
  0.4500000      0.0000000E+00
  0.4600000      0.0000000E+00
  0.4700000      0.0000000E+00
  0.4800000      0.0000000E+00
  0.4900000      0.0000000E+00
  0.5000000      0.0000000E+00
  0.5100000      0.0000000E+00
  0.5200000      0.0000000E+00
  0.5300000      0.0000000E+00
  0.5400000      0.0000000E+00
  0.5500000      0.0000000E+00
  0.5600000      0.0000000E+00
  0.5700000      0.0000000E+00
  0.5800000      0.0000000E+00
  0.5900000      0.0000000E+00
  0.6000000      0.0000000E+00
  0.6100000      0.0000000E+00
  0.6200000      0.0000000E+00
  0.6300000      0.0000000E+00
  0.6400000      0.0000000E+00
  0.6500000      0.0000000E+00
  0.6600000      0.0000000E+00
  0.6700000      0.0000000E+00
  0.6800000      0.0000000E+00
  0.6900000      0.0000000E+00
  0.7000000      0.0000000E+00
  0.7100000      0.0000000E+00
  0.7200000      0.0000000E+00
  0.7300000      0.0000000E+00
  0.7400000      0.0000000E+00
  0.7500000      0.0000000E+00
  0.7600000      0.0000000E+00
  0.7700000      0.0000000E+00
  0.7800000      0.0000000E+00
  0.7900000      0.0000000E+00
  0.8000000      0.0000000E+00
  0.8100000      0.0000000E+00
  0.8200000      0.0000000E+00
  0.8300000      0.0000000E+00
  0.8400000      0.0000000E+00
  0.8500000      0.0000000E+00
  0.8600000      0.0000000E+00
  0.8700000      0.0000000E+00
  0.8800000      0.0000000E+00
  0.8900000      0.0000000E+00
  0.9000000      0.0000000E+00
  0.9100000      0.0000000E+00
  0.9200000      0.0000000E+00
  0.9300000      0.0000000E+00
  0.9400000      0.0000000E+00
  0.9500000      0.0000000E+00
  0.9600000      0.0000000E+00
  0.9700000      0.0000000E+00
  0.9800000      0.0000000E+00
  0.9900000      0.0000000E+00
   1.000000      0.0000000E+00
   1.010000      0.0000000E+00
   1.020000      0.0000000E+00
   1.030000      0.0000000E+00
   1.040000      0.0000000E+00
   1.050000      0.0000000E+00
   1.060000      0.0000000E+00
   1.070000      0.0000000E+00
   1.080000      0.0000000E+00
   1.090000      0.0000000E+00
   1.100000      0.0000000E+00
   1.110000      0.0000000E+00
   1.120000      0.0000000E+00
   1.130000      0.0000000E+00
   1.140000      0.0000000E+00
   1.150000      0.0000000E+00
   1.160000      0.0000000E+00
   1.170000      0.0000000E+00
   1.180000      0.0000000E+00
   1.190000      0.0000000E+00
   1.200000      0.0000000E+00
   1.210000      0.0000000E+00
   1.220000      0.0000000E+00
   1.230000      0.0000000E+00
   1.240000      0.0000000E+00
   1.250000      0.0000000E+00
   1.260000      0.0000000E+00
   1.270000      0.0000000E+00
   1.280000      0.0000000E+00
   1.290000      0.0000000E+00
   1.300000      0.0000000E+00
   1.310000      0.0000000E+00
   1.320000      0.0000000E+00
   1.330000      0.0000000E+00
   1.340000      0.0000000E+00
   1.350000      0.0000000E+00
   1.360000      0.0000000E+00
   1.370000      0.0000000E+00
   1.380000      0.0000000E+00
   1.390000      0.0000000E+00
   1.400000      0.0000000E+00
   1.410000      0.0000000E+00
   1.420000      0.0000000E+00
   1.430000      0.0000000E+00
   1.440000      0.0000000E+00
   1.450000      0.0000000E+00
   1.460000      0.0000000E+00
   1.470000      0.0000000E+00
   1.480000      0.0000000E+00
   1.490000      0.0000000E+00
   1.500000      0.0000000E+00
   1.510000      0.0000000E+00
   1.520000      0.0000000E+00
   1.530000      0.0000000E+00
   1.540000      0.0000000E+00
   1.550000      0.0000000E+00
   1.560000      0.0000000E+00
   1.570000      0.0000000E+00
   1.580000      0.0000000E+00
   1.590000      0.0000000E+00
   1.600000      0.0000000E+00
   1.610000      0.0000000E+00
   1.620000      0.0000000E+00
   1.630000      0.0000000E+00
   1.640000      0.0000000E+00
   1.650000      0.0000000E+00
   1.660000      0.0000000E+00
   1.670000      0.0000000E+00
   1.680000      0.0000000E+00
   1.690000      0.0000000E+00
   1.700000      0.0000000E+00
   1.710000      0.0000000E+00
   1.720000      0.0000000E+00
   1.730000      0.0000000E+00
   1.740000      0.0000000E+00
   1.750000      0.0000000E+00
   1.760000      0.0000000E+00
   1.770000      0.0000000E+00
   1.780000      0.0000000E+00
   1.790000      0.0000000E+00
   1.800000      0.0000000E+00
   1.810000      0.0000000E+00
   1.820000      0.0000000E+00
   1.830000      0.0000000E+00
   1.840000      0.0000000E+00
   1.850000      0.0000000E+00
   1.860000      0.0000000E+00
   1.870000      0.0000000E+00
   1.880000      0.0000000E+00
   1.890000      0.0000000E+00
   1.900000      0.0000000E+00
   1.910000      0.0000000E+00
   1.920000      0.0000000E+00
   1.930000      0.0000000E+00
   1.940000      0.0000000E+00
   1.950000      0.0000000E+00
   1.960000      0.0000000E+00
   1.970000      0.0000000E+00
   1.980000      0.0000000E+00
   1.990000      0.0000000E+00
   2.000000      0.0000000E+00
   2.010000      0.0000000E+00
   2.020000      0.0000000E+00
   2.030000      0.0000000E+00
   2.040000      0.0000000E+00
   2.050000      0.0000000E+00
   2.060000      0.0000000E+00
   2.070000      0.0000000E+00
   2.080000      0.0000000E+00
   2.090000      0.0000000E+00
   2.100000      0.0000000E+00
   2.110000      0.0000000E+00
   2.120000      0.0000000E+00
   2.130000      0.0000000E+00
   2.140000     -1.4009940E-38
   2.150000     -1.7868826E-38
   2.160000     -2.1558145E-38
   2.170000     -2.4826228E-38
   2.180000     -2.8173164E-38
   2.190000     -3.1757579E-38
   2.200000     -3.5658587E-38
   2.210000     -3.9926653E-38
   2.220000     -4.4687195E-38
   2.230000     -5.0106414E-38
   2.240000     -5.6288175E-38
   2.250000     -6.3274410E-38
   2.260000     -7.1318480E-38
   2.270000     -7.9906326E-38
   2.280000     -8.8321482E-38
   2.290000     -9.6510284E-38
   2.300000     -1.0429348E-37
   2.310000     -1.1074373E-37
   2.320000     -1.1567204E-37
   2.330000     -1.1967237E-37
   2.340000     -1.2214796E-37
   2.350000     -1.2245247E-37
   2.360000     -1.2083681E-37
   2.370000     -1.1767733E-37
   2.380000     -1.1064845E-37
   2.390000     -1.0012522E-37
   2.400000     -8.9900253E-38
   2.410000     -7.9986341E-38
   2.420000     -6.8308429E-38
   2.430000     -5.4818611E-38
   2.440000     -3.8469140E-38
   2.450000     -1.8875452E-38
   2.460000      0.0000000E+00
   2.470000      2.5811111E-38
   2.480000      5.1462978E-38
   2.490000      8.0736764E-38
   2.500000      1.1382992E-37
   2.510000      1.4835837E-37
   2.520000      1.8349036E-37
   2.530000      2.2079811E-37
   2.540000      2.6221525E-37
   2.550000      3.0555499E-37
   2.560000      3.5126618E-37
   2.570000      4.0064361E-37
   2.580000      4.4756823E-37
   2.590000      4.9086674E-37
   2.600000      5.3265516E-37
   2.610000      5.7236522E-37
   2.620000      6.0926511E-37
   2.630000      6.4263588E-37
   2.640000      6.7443011E-37
   2.650000      6.9914260E-37
   2.660000      7.1560734E-37
   2.670000      7.2648016E-37
   2.680000      7.2651065E-37
   2.690000      7.1618181E-37
   2.700000      6.9967361E-37
   2.710000      6.7719813E-37
   2.720000      6.3775106E-37
   2.730000      5.7182183E-37
   2.740000      4.8381558E-37
   2.750000      3.8120466E-37
   2.760000      2.5722858E-37
   2.770000      8.7525259E-38
   2.780000     -2.2316611E-37
   2.790000     -6.6764235E-37
   2.800000     -1.1436068E-36
   2.810000     -1.6502503E-36
   2.820000     -2.1848640E-36
   2.830000     -2.7393800E-36
   2.840000     -3.3116508E-36
   2.850000     -3.8942329E-36
   2.860000     -4.3342501E-36
   2.870000     -4.6321412E-36
   2.880000     -4.9443941E-36
   2.890000     -5.0701229E-36
   2.900000     -4.9791638E-36
   2.910000     -4.8515089E-36
   2.920000     -4.7042058E-36
   2.930000     -4.5582441E-36
   2.940000     -4.4340764E-36
   2.950000     -4.3651399E-36
   2.960000     -4.3578942E-36
   2.970000     -4.3988374E-36
   2.980000     -4.2773028E-36
   2.990000     -3.8654977E-36
   3.000000     -3.3811828E-36
   3.010000     -2.8451282E-36
   3.020000     -2.1715360E-36
   3.030000     -1.5611407E-36
   3.040000     -9.6387120E-37
   3.050000     -2.0597061E-37
   3.060000      6.8625227E-37
   3.070000      1.6046680E-36
   3.080000      2.5414225E-36
   3.090000      3.5919223E-36
   3.100000      4.7025252E-36
   3.110000      5.8768415E-36
   3.120000      7.1156108E-36
   3.130000      8.4978132E-36
   3.140000      1.0032468E-35
   3.150000      1.1588132E-35
   3.160000      1.3046265E-35
   3.170000      1.4523269E-35
   3.180000      1.6180258E-35
   3.190000      1.7957625E-35
   3.200000      1.9850178E-35
   3.210000      2.1784928E-35
   3.220000      2.3690483E-35
   3.230000      2.5613844E-35
   3.240000      2.7483922E-35
   3.250000      2.9337604E-35
   3.260000      3.1176340E-35
   3.270000      3.2864988E-35
   3.280000      3.4433912E-35
   3.290000      3.5829995E-35
   3.300000      3.6923512E-35
   3.310000      3.7792646E-35
   3.320000      3.8338892E-35
   3.330000      3.8383245E-35
   3.340000      3.7930907E-35
   3.350000      3.6935447E-35
   3.360000      3.5275710E-35
   3.370000      3.2987158E-35
   3.380000      2.9586277E-35
   3.390000      2.4655145E-35
   3.400000      1.8698453E-35
   3.410000      1.2234787E-35
   3.420000      5.3582177E-36
   3.430000     -2.3589676E-36
   3.440000     -1.0411855E-35
   3.450000     -1.8387436E-35
   3.460000     -2.6544996E-35
   3.470000     -3.5071049E-35
   3.480000     -4.4324201E-35
   3.490000     -5.4181898E-35
   3.500000     -6.4471893E-35
   3.510000     -7.5201356E-35
   3.520000     -8.6094417E-35
   3.530000     -9.6806230E-35
   3.540000     -1.0746384E-34
   3.550000     -1.1826041E-34
   3.560000     -1.2904241E-34
   3.570000     -1.3990291E-34
   3.580000     -1.5043313E-34
   3.590000     -1.6053366E-34
   3.600000     -1.7032899E-34
   3.610000     -1.7955039E-34
   3.620000     -1.8855113E-34
   3.630000     -1.9742992E-34
   3.640000     -2.0653780E-34
   3.650000     -2.1599576E-34
   3.660000     -2.2537540E-34
   3.670000     -2.3139168E-34
   3.680000     -2.3442452E-34
   3.690000     -2.3675939E-34
   3.700000     -2.3726231E-34
   3.710000     -2.3674826E-34
   3.720000     -2.3573474E-34
   3.730000     -2.3259410E-34
   3.740000     -2.1764404E-34
   3.750000     -1.9305006E-34
   3.760000     -1.6713887E-34
   3.770000     -1.3764698E-34
   3.780000     -1.0239069E-34
   3.790000     -6.0312296E-35
   3.800000     -1.8149308E-35
   3.810000      2.3480831E-35
   3.820000      7.1014484E-35
   3.830000      1.2439637E-34
   3.840000      1.7470805E-34
   3.850000      2.1865485E-34
   3.860000      2.6154694E-34
   3.870000      3.0459251E-34
   3.880000      3.4835497E-34
   3.890000      3.9326636E-34
   3.900000      4.3961684E-34
   3.910000      4.8777657E-34
   3.920000      5.3921882E-34
   3.930000      5.9375583E-34
   3.940000      6.5038941E-34
   3.950000      7.0743941E-34
   3.960000      7.6346411E-34
   3.970000      8.2060636E-34
   3.980000      8.7775320E-34
   3.990000      9.3595174E-34
   4.000000      9.9584557E-34
   4.010000      1.0535535E-33
   4.020000      1.1140006E-33
   4.030000      1.1769816E-33
   4.040000      1.2314442E-33
   4.050000      1.2768324E-33
   4.060000      1.3234150E-33
   4.070000      1.3705824E-33
   4.080000      1.4040620E-33
   4.090000      1.4259509E-33
   4.100000      1.4436309E-33
   4.110000      1.4479204E-33
   4.120000      1.4362311E-33
   4.130000      1.4107320E-33
   4.140000      1.3699640E-33
   4.150000      1.3139676E-33
   4.160000      1.2434295E-33
   4.170000      1.1578884E-33
   4.180000      1.0549191E-33
   4.190000      9.3114195E-34
   4.200000      7.8600835E-34
   4.210000      6.2282866E-34
   4.220000      4.4134133E-34
   4.230000      2.4047852E-34
   4.240000      1.9542239E-35
   4.250000     -2.2244281E-34
   4.260000     -4.8150379E-34
   4.270000     -7.5534030E-34
   4.280000     -1.0449560E-33
   4.290000     -1.3494176E-33
   4.300000     -1.6673032E-33
   4.310000     -1.9983187E-33
   4.320000     -2.3433201E-33
   4.330000     -2.6995568E-33
   4.340000     -3.0647349E-33
   4.350000     -3.4390568E-33
   4.360000     -3.8214102E-33
   4.370000     -4.2106046E-33
   4.380000     -4.6053848E-33
   4.390000     -5.0042374E-33
   4.400000     -5.4069746E-33
   4.410000     -5.8103922E-33
   4.420000     -6.2098060E-33
   4.430000     -6.6055832E-33
   4.440000     -6.9965703E-33
   4.450000     -7.3786941E-33
   4.460000     -7.7486766E-33
   4.470000     -8.1031072E-33
   4.480000     -8.4381951E-33
   4.490000     -8.7499215E-33
   4.500000     -9.0340333E-33
   4.510000     -9.2874501E-33
   4.520000     -9.5033869E-33
   4.530000     -9.6757688E-33
   4.540000     -9.8000942E-33
   4.550000     -9.8724863E-33
   4.560000     -9.8873989E-33
   4.570000     -9.8374558E-33
   4.580000     -9.7185296E-33
   4.590000     -9.5252063E-33
   4.600000     -9.2527267E-33
   4.610000     -8.8955439E-33
   4.620000     -8.4500228E-33
   4.630000     -7.9132862E-33
   4.640000     -7.2775252E-33
   4.650000     -6.5396064E-33
   4.660000     -5.6978544E-33
   4.670000     -4.7478474E-33
   4.680000     -3.6874200E-33
   4.690000     -2.5142144E-33
   4.700000     -1.2264367E-33
   4.710000      1.7720604E-34
   4.720000      1.6975419E-33
   4.730000      3.3348650E-33
   4.740000      5.0888462E-33
   4.750000      6.9587488E-33
   4.760000      8.9431485E-33
   4.770000      1.1039977E-32
   4.780000      1.3246634E-32
   4.790000      1.5559477E-32
   4.800000      1.7973494E-32
   4.810000      2.0484429E-32
   4.820000      2.3086838E-32
   4.830000      2.5773172E-32
   4.840000      2.8535634E-32
   4.850000      3.1365152E-32
   4.860000      3.4252039E-32
   4.870000      3.7184586E-32
   4.880000      4.0149982E-32
   4.890000      4.3135027E-32
   4.900000      4.6124756E-32
   4.910000      4.9102988E-32
   4.920000      5.2052242E-32
   4.930000      5.4953732E-32
   4.940000      5.7787390E-32
   4.950000      6.0531870E-32
   4.960000      6.3164636E-32
   4.970000      6.5661839E-32
   4.980000      6.7998463E-32
   4.990000      7.0148472E-32
   5.000000      7.2084746E-32
   5.010000      7.3779215E-32
   5.020000      7.5202927E-32
   5.030000      7.6326165E-32
   5.040000      7.7118542E-32
   5.050000      7.7549114E-32
   5.060000      7.7586518E-32
   5.070000      7.7199316E-32
   5.080000      7.6355411E-32
   5.090000      7.5022694E-32
   5.100000      7.3169645E-32
   5.110000      7.0764842E-32
   5.120000      6.7777253E-32
   5.130000      6.4176443E-32
   5.140000      5.9933285E-32
   5.150000      5.5018672E-32
   5.160000      4.9404688E-32
   5.170000      4.3065849E-32
   5.180000      3.5977492E-32
   5.190000      2.8116773E-32
   5.200000      1.9463215E-32
   5.210000      9.9984802E-33
   5.220000     -2.9322831E-34
   5.230000     -1.1424932E-32
   5.240000     -2.3406570E-32
   5.250000     -3.6244770E-32
   5.260000     -4.9942494E-32
   5.270000     -6.4498870E-32
   5.280000     -7.9909171E-32
   5.290000     -9.6163425E-32
   5.300000     -1.1324690E-31
   5.310000     -1.3114049E-31
   5.320000     -1.4981940E-31
   5.330000     -1.6925314E-31
   5.340000     -1.8940527E-31
   5.350000     -2.1023310E-31
   5.360000     -2.3168740E-31
   5.370000     -2.5371224E-31
   5.380000     -2.7624456E-31
   5.390000     -2.9921407E-31
   5.400000     -3.2254305E-31
   5.410000     -3.4614603E-31
   5.420000     -3.6992969E-31
   5.430000     -3.9379272E-31
   5.440000     -4.1762573E-31
   5.450000     -4.4131100E-31
   5.460000     -4.6472266E-31
   5.470000     -4.8772643E-31
   5.480000     -5.1017974E-31
   5.490000     -5.3193179E-31
   5.500000     -5.5282352E-31
   5.510000     -5.7268787E-31
   5.520000     -5.9134988E-31
   5.530000     -6.0862673E-31
   5.540000     -6.2432837E-31
   5.550000     -6.3825732E-31
   5.560000     -6.5020956E-31
   5.570000     -6.5997444E-31
   5.580000     -6.6733543E-31
   5.590000     -6.7207056E-31
   5.600000     -6.7395290E-31
   5.610000     -6.7275131E-31
   5.620000     -6.6823102E-31
   5.630000     -6.6015457E-31
   5.640000     -6.4828241E-31
   5.650000     -6.3237393E-31
   5.660000     -6.1218824E-31
   5.670000     -5.8748546E-31
   5.680000     -5.5802748E-31
   5.690000     -5.2357943E-31
   5.700000     -4.8391073E-31
   5.710000     -4.3879652E-31
   5.720000     -3.8801898E-31
   5.730000     -3.3136875E-31
   5.740000     -2.6864661E-31
   5.750000     -1.9966503E-31
   5.760000     -1.2424986E-31
   5.770000     -4.2242077E-32
   5.780000      4.6500376E-32
   5.790000      1.4210066E-31
   5.800000      2.4466107E-31
   5.810000      3.5426106E-31
   5.820000      4.7095513E-31
   5.830000      5.9477071E-31
   5.840000      7.2570611E-31
   5.850000      8.6372805E-31
   5.860000      1.0087698E-30
   5.870000      1.1607285E-30
   5.880000      1.3194634E-30
   5.890000      1.4847931E-30
   5.900000      1.6564937E-30
   5.910000      1.8342959E-30
   5.920000      2.0178839E-30
   5.930000      2.2068917E-30
   5.940000      2.4009023E-30
   5.950000      2.5994461E-30
   5.960000      2.8019954E-30
   5.970000      3.0079655E-30
   5.980000      3.2167138E-30
   5.990000      3.4275358E-30
   6.000000      3.6396638E-30
   6.010000      3.8522661E-30
   6.020000      4.0644449E-30
   6.030000      4.2752368E-30
   6.040000      4.4836097E-30
   6.050000      4.6884632E-30
   6.060000      4.8886279E-30
   6.070000      5.0828654E-30
   6.080000      5.2698676E-30
   6.090000      5.4482583E-30
   6.100000      5.6165910E-30
   6.110000      5.7733538E-30
   6.120000      5.9169680E-30
   6.130000      6.0457886E-30
   6.140000      6.1581106E-30
   6.150000      6.2521667E-30
   6.160000      6.3261337E-30
   6.170000      6.3781345E-30
   6.180000      6.4062403E-30
   6.190000      6.4084785E-30
   6.200000      6.3828343E-30
   6.210000      6.3272584E-30
   6.220000      6.2396722E-30
   6.230000      6.1179726E-30
   6.240000      5.9600419E-30
   6.250000      5.7637542E-30
   6.260000      5.5269841E-30
   6.270000      5.2476148E-30
   6.280000      4.9235492E-30
   6.290000      4.5527178E-30
   6.300000      4.1330923E-30
   6.310000      3.6626960E-30
   6.320000      3.1396149E-30
   6.330000      2.5620131E-30
   6.340000      1.9281446E-30
   6.350000      1.2363674E-30
   6.360000      4.8515887E-31
   6.370000     -3.2686849E-31
   6.380000     -1.2009523E-30
   6.390000     -2.1381627E-30
   6.400000     -3.1393873E-30
   6.410000     -4.2053087E-30
   6.420000     -5.3363896E-30
   6.430000     -6.5328567E-30
   6.440000     -7.7946763E-30
   6.450000     -9.1215397E-30
   6.460000     -1.0512839E-29
   6.470000     -1.1967653E-29
   6.480000     -1.3484719E-29
   6.490000     -1.5062421E-29
   6.500000     -1.6698767E-29
   6.510000     -1.8391361E-29
   6.520000     -2.0137397E-29
   6.530000     -2.1933628E-29
   6.540000     -2.3776351E-29
   6.550000     -2.5661388E-29
   6.560000     -2.7584071E-29
   6.570000     -2.9539209E-29
   6.580000     -3.1521091E-29
   6.590000     -3.3523462E-29
   6.600000     -3.5539507E-29
   6.610000     -3.7561836E-29
   6.620000     -3.9582474E-29
   6.630000     -4.1592850E-29
   6.640000     -4.3583789E-29
   6.650000     -4.5545505E-29
   6.660000     -4.7467592E-29
   6.670000     -4.9339024E-29
   6.680000     -5.1148155E-29
   6.690000     -5.2882720E-29
   6.700000     -5.4529836E-29
   6.710000     -5.6076020E-29
   6.720000     -5.7507185E-29
   6.730000     -5.8808656E-29
   6.740000     -5.9965213E-29
   6.750000     -6.0961063E-29
   6.760000     -6.1779927E-29
   6.770000     -6.2404999E-29
   6.780000     -6.2819038E-29
   6.790000     -6.3004373E-29
   6.800000     -6.2942942E-29
   6.810000     -6.2616376E-29
   6.820000     -6.2006007E-29
   6.830000     -6.1092929E-29
   6.840000     -5.9858095E-29
   6.850000     -5.8282348E-29
   6.860000     -5.6346505E-29
   6.870000     -5.4031429E-29
   6.880000     -5.1318125E-29
   6.890000     -4.8187811E-29
   6.900000     -4.4622027E-29
   6.910000     -4.0602717E-29
   6.920000     -3.6112354E-29
   6.930000     -3.1134039E-29
   6.940000     -2.5651599E-29
   6.950000     -1.9649744E-29
   6.960000     -1.3114172E-29
   6.970000     -6.0317124E-30
   6.980000      1.6095529E-30
   6.990000      9.8201422E-30
   7.000000      1.8609021E-29
   7.010000      2.7983467E-29
   7.020000      3.7948897E-29
   7.030000      4.8508726E-29
   7.040000      5.9664214E-29
   7.050000      7.1414277E-29
   7.060000      8.3755317E-29