  -2.600000      0.0000000E+00
  -2.590000      0.0000000E+00
  -2.580000      0.0000000E+00
  -2.570000      0.0000000E+00
  -2.560000      0.0000000E+00
  -2.550000      0.0000000E+00
  -2.540000      0.0000000E+00
  -2.530000      0.0000000E+00
  -2.520000      0.0000000E+00
  -2.510000      0.0000000E+00
  -2.500000      0.0000000E+00
  -2.490000      0.0000000E+00
  -2.480000      0.0000000E+00
  -2.470000      0.0000000E+00
  -2.460000      0.0000000E+00
  -2.450000      0.0000000E+00
  -2.440000      0.0000000E+00
  -2.430000      0.0000000E+00
  -2.420000      0.0000000E+00
  -2.410000      0.0000000E+00
  -2.400000      0.0000000E+00
  -2.390000      0.0000000E+00
  -2.380000      0.0000000E+00
  -2.370000      0.0000000E+00
  -2.360000      0.0000000E+00
  -2.350000      0.0000000E+00
  -2.340000      0.0000000E+00
  -2.330000      0.0000000E+00
  -2.320000      0.0000000E+00
  -2.310000      0.0000000E+00
  -2.300000      0.0000000E+00
  -2.290000      0.0000000E+00
  -2.280000      0.0000000E+00
  -2.270000      0.0000000E+00
  -2.260000      0.0000000E+00
  -2.250000      0.0000000E+00
  -2.240000      0.0000000E+00
  -2.230000      0.0000000E+00
  -2.220000      0.0000000E+00
  -2.210000      0.0000000E+00
  -2.200000      0.0000000E+00
  -2.190000      0.0000000E+00
  -2.180000      0.0000000E+00
  -2.170000      0.0000000E+00
  -2.160000      0.0000000E+00
  -2.150000      0.0000000E+00
  -2.140000      0.0000000E+00
  -2.130000      0.0000000E+00
  -2.120000      0.0000000E+00
  -2.110000      0.0000000E+00
  -2.100000      0.0000000E+00
  -2.090000      0.0000000E+00
  -2.080000      0.0000000E+00
  -2.070000      0.0000000E+00
  -2.060000      0.0000000E+00
  -2.050000      0.0000000E+00
  -2.040000      0.0000000E+00
  -2.030000      0.0000000E+00
  -2.020000      0.0000000E+00
  -2.010000      0.0000000E+00
  -2.000000      0.0000000E+00
  -1.990000      0.0000000E+00
  -1.980000      0.0000000E+00
  -1.970000      0.0000000E+00
  -1.960000      0.0000000E+00
  -1.950000      0.0000000E+00
  -1.940000      0.0000000E+00
  -1.930000      0.0000000E+00
  -1.920000      0.0000000E+00
  -1.910000      0.0000000E+00
  -1.900000      0.0000000E+00
  -1.890000      0.0000000E+00
  -1.880000      0.0000000E+00
  -1.870000      0.0000000E+00
  -1.860000      0.0000000E+00
  -1.850000      0.0000000E+00
  -1.840000      0.0000000E+00
  -1.830000      0.0000000E+00
  -1.820000      0.0000000E+00
  -1.810000      0.0000000E+00
  -1.800000      0.0000000E+00
  -1.790000      0.0000000E+00
  -1.780000      0.0000000E+00
  -1.770000      0.0000000E+00
  -1.760000      0.0000000E+00
  -1.750000      0.0000000E+00
  -1.740000      0.0000000E+00
  -1.730000      0.0000000E+00
  -1.720000      0.0000000E+00
  -1.710000      0.0000000E+00
  -1.700000      0.0000000E+00
  -1.690000      0.0000000E+00
  -1.680000      0.0000000E+00
  -1.670000      0.0000000E+00
  -1.660000      0.0000000E+00
  -1.650000      0.0000000E+00
  -1.640000      0.0000000E+00
  -1.630000      0.0000000E+00
  -1.620000      0.0000000E+00
  -1.610000      0.0000000E+00
  -1.600000      0.0000000E+00
  -1.590000      0.0000000E+00
  -1.580000      0.0000000E+00
  -1.570000      0.0000000E+00
  -1.560000      0.0000000E+00
  -1.550000      0.0000000E+00
  -1.540000      0.0000000E+00
  -1.530000      0.0000000E+00
  -1.520000      0.0000000E+00
  -1.510000      0.0000000E+00
  -1.500000      0.0000000E+00
  -1.490000      0.0000000E+00
  -1.480000      0.0000000E+00
  -1.470000      0.0000000E+00
  -1.460000      0.0000000E+00
  -1.450000      0.0000000E+00
  -1.440000      0.0000000E+00
  -1.430000      0.0000000E+00
  -1.420000      0.0000000E+00
  -1.410000      0.0000000E+00
  -1.400000      0.0000000E+00
  -1.390000      0.0000000E+00
  -1.380000      0.0000000E+00
  -1.370000      0.0000000E+00
  -1.360000      0.0000000E+00
  -1.350000      0.0000000E+00
  -1.340000      0.0000000E+00
  -1.330000      0.0000000E+00
  -1.320000      0.0000000E+00
  -1.310000      0.0000000E+00
  -1.300000      0.0000000E+00
  -1.290000      0.0000000E+00
  -1.280000      0.0000000E+00
  -1.270000      0.0000000E+00
  -1.260000      0.0000000E+00
  -1.250000      0.0000000E+00
  -1.240000      0.0000000E+00
  -1.230000      0.0000000E+00
  -1.220000      0.0000000E+00
  -1.210000      0.0000000E+00
  -1.200000      0.0000000E+00
  -1.190000      0.0000000E+00
  -1.180000      0.0000000E+00
  -1.170000      0.0000000E+00
  -1.160000      0.0000000E+00
  -1.150000      0.0000000E+00
  -1.140000      0.0000000E+00
  -1.130000      0.0000000E+00
  -1.120000      0.0000000E+00
  -1.110000      0.0000000E+00
  -1.100000      0.0000000E+00
  -1.090000      0.0000000E+00
  -1.080000      0.0000000E+00
  -1.070000      0.0000000E+00
  -1.060000      0.0000000E+00
  -1.050000      0.0000000E+00
  -1.040000      0.0000000E+00
  -1.030000      0.0000000E+00
  -1.020000      0.0000000E+00
  -1.010000      0.0000000E+00
  -1.000000      0.0000000E+00
 -0.9900000      0.0000000E+00
 -0.9800000      0.0000000E+00
 -0.9700000      0.0000000E+00
 -0.9600000      0.0000000E+00
 -0.9500000      0.0000000E+00
 -0.9400000      0.0000000E+00
 -0.9300000      0.0000000E+00
 -0.9200000      0.0000000E+00
 -0.9100000      0.0000000E+00
 -0.9000000      0.0000000E+00
 -0.8900000      0.0000000E+00
 -0.8800000      0.0000000E+00
 -0.8700000      0.0000000E+00
 -0.8600000      0.0000000E+00
 -0.8500000      0.0000000E+00
 -0.8400000      0.0000000E+00
 -0.8300000      0.0000000E+00
 -0.8200000      0.0000000E+00
 -0.8100000      0.0000000E+00
 -0.8000000      0.0000000E+00
 -0.7900000      0.0000000E+00
 -0.7800000      0.0000000E+00
 -0.7700000      0.0000000E+00
 -0.7600000      0.0000000E+00
 -0.7500000      0.0000000E+00
 -0.7400000      0.0000000E+00
 -0.7300000      0.0000000E+00
 -0.7200000      0.0000000E+00
 -0.7100000      0.0000000E+00
 -0.7000000      0.0000000E+00
 -0.6900000      0.0000000E+00
 -0.6800000      0.0000000E+00
 -0.6700000      0.0000000E+00
 -0.6600000      0.0000000E+00
 -0.6500000      0.0000000E+00
 -0.6400000      0.0000000E+00
 -0.6300000      0.0000000E+00
 -0.6200000      0.0000000E+00
 -0.6100000      0.0000000E+00
 -0.6000000      0.0000000E+00
 -0.5900000      0.0000000E+00
 -0.5800000      0.0000000E+00
 -0.5700000      0.0000000E+00
 -0.5600000      0.0000000E+00
 -0.5500000      0.0000000E+00
 -0.5400000      0.0000000E+00
 -0.5300000      0.0000000E+00
 -0.5200000      0.0000000E+00
 -0.5100000      0.0000000E+00
 -0.5000000      0.0000000E+00
 -0.4900000      0.0000000E+00
 -0.4800000      0.0000000E+00
 -0.4700000      0.0000000E+00
 -0.4600000      0.0000000E+00
 -0.4500000      0.0000000E+00
 -0.4400000      0.0000000E+00
 -0.4300000      0.0000000E+00
 -0.4200000      0.0000000E+00
 -0.4100000      0.0000000E+00
 -0.4000000      0.0000000E+00
 -0.3900000      0.0000000E+00
 -0.3800000      0.0000000E+00
 -0.3700000      0.0000000E+00
 -0.3600000      0.0000000E+00
 -0.3500000      0.0000000E+00
 -0.3400000      0.0000000E+00
 -0.3300000      0.0000000E+00
 -0.3200000      0.0000000E+00
 -0.3100000      0.0000000E+00
 -0.3000000      0.0000000E+00
 -0.2900000      0.0000000E+00
 -0.2800000      0.0000000E+00
 -0.2700000      0.0000000E+00
 -0.2600000      0.0000000E+00
 -0.2500000      0.0000000E+00
 -0.2400000      0.0000000E+00
 -0.2300000      0.0000000E+00
 -0.2200000      0.0000000E+00
 -0.2100000      0.0000000E+00
 -0.2000000      0.0000000E+00
 -0.1900000      0.0000000E+00
 -0.1800000      0.0000000E+00
 -0.1700000      0.0000000E+00
 -0.1600000      0.0000000E+00
 -0.1500000      0.0000000E+00
 -0.1400000      0.0000000E+00
 -0.1300000      0.0000000E+00
 -0.1200000      0.0000000E+00
 -0.1100000      0.0000000E+00
 -0.1000000      0.0000000E+00
 -9.0000004E-02  0.0000000E+00
 -7.9999998E-02  0.0000000E+00
 -7.0000000E-02  0.0000000E+00
 -5.9999999E-02  0.0000000E+00
 -5.0000001E-02  0.0000000E+00
 -3.9999999E-02  0.0000000E+00
 -2.9999999E-02  0.0000000E+00
 -2.0000000E-02  0.0000000E+00
 -9.9999998E-03  0.0000000E+00
 -3.4694470E-17  0.0000000E+00
  9.9999998E-03  0.0000000E+00
  2.0000000E-02  0.0000000E+00
  2.9999999E-02  0.0000000E+00
  3.9999999E-02  0.0000000E+00
  5.0000001E-02  0.0000000E+00
  5.9999999E-02  0.0000000E+00
  7.0000000E-02  0.0000000E+00
  7.9999998E-02  0.0000000E+00
  9.0000004E-02  0.0000000E+00
  0.1000000      0.0000000E+00
  0.1100000      0.0000000E+00
  0.1200000      0.0000000E+00
  0.1300000      0.0000000E+00
  0.1400000      0.0000000E+00
  0.1500000      0.0000000E+00
  0.1600000      0.0000000E+00
  0.1700000      0.0000000E+00
  0.1800000      0.0000000E+00
  0.1900000      0.0000000E+00
  0.2000000      0.0000000E+00
  0.2100000      0.0000000E+00
  0.2200000      0.0000000E+00
  0.2300000      0.0000000E+00
  0.2400000      0.0000000E+00
  0.2500000      0.0000000E+00
  0.2600000      0.0000000E+00
  0.2700000      0.0000000E+00
  0.2800000      0.0000000E+00
  0.2900000      0.0000000E+00
  0.3000000      0.0000000E+00
  0.3100000      0.0000000E+00
  0.3200000      0.0000000E+00
  0.3300000      0.0000000E+00
  0.3400000      0.0000000E+00
  0.3500000      0.0000000E+00
  0.3600000      0.0000000E+00
  0.3700000      0.0000000E+00
  0.3800000      0.0000000E+00
  0.3900000      0.0000000E+00
  0.4000000      0.0000000E+00
  0.4100000      0.0000000E+00
  0.4200000      0.0000000E+00
  0.4300000      0.0000000E+00
  0.4400000      0.0000000E+00
  0.4500000      0.0000000E+00
  0.4600000      0.0000000E+00
  0.4700000      0.0000000E+00
  0.4800000      0.0000000E+00
  0.4900000      0.0000000E+00
  0.5000000      0.0000000E+00
  0.5100000      0.0000000E+00
  0.5200000      0.0000000E+00
  0.5300000      0.0000000E+00
  0.5400000      0.0000000E+00
  0.5500000      0.0000000E+00
  0.5600000      0.0000000E+00
  0.5700000      0.0000000E+00
  0.5800000      0.0000000E+00
  0.5900000      0.0000000E+00
  0.6000000      0.0000000E+00
  0.6100000      0.0000000E+00
  0.6200000      0.0000000E+00
  0.6300000      0.0000000E+00
  0.6400000      0.0000000E+00
  0.6500000      0.0000000E+00
  0.6600000      0.0000000E+00
  0.6700000      0.0000000E+00
  0.6800000      0.0000000E+00
  0.6900000      0.0000000E+00
  0.7000000      0.0000000E+00
  0.7100000      0.0000000E+00
  0.7200000      0.0000000E+00
  0.7300000      0.0000000E+00
  0.7400000      0.0000000E+00
  0.7500000      0.0000000E+00
  0.7600000      0.0000000E+00
  0.7700000      0.0000000E+00
  0.7800000      0.0000000E+00
  0.7900000      0.0000000E+00
  0.8000000      0.0000000E+00
  0.8100000      0.0000000E+00
  0.8200000      0.0000000E+00
  0.8300000      0.0000000E+00
  0.8400000      0.0000000E+00
  0.8500000      0.0000000E+00
  0.8600000      0.0000000E+00
  0.8700000      0.0000000E+00
  0.8800000      0.0000000E+00
  0.8900000      0.0000000E+00
  0.9000000      0.0000000E+00
  0.9100000      0.0000000E+00
  0.9200000      0.0000000E+00
  0.9300000      0.0000000E+00
  0.9400000      0.0000000E+00
  0.9500000      0.0000000E+00
  0.9600000      0.0000000E+00
  0.9700000      0.0000000E+00
  0.9800000      0.0000000E+00
  0.9900000      0.0000000E+00
   1.000000      0.0000000E+00
   1.010000      0.0000000E+00
   1.020000      0.0000000E+00
   1.030000      0.0000000E+00
   1.040000      0.0000000E+00
   1.050000      0.0000000E+00
   1.060000      0.0000000E+00
   1.070000      0.0000000E+00
   1.080000      0.0000000E+00
   1.090000      0.0000000E+00
   1.100000      0.0000000E+00
   1.110000      0.0000000E+00
   1.120000      0.0000000E+00
   1.130000      0.0000000E+00
   1.140000      0.0000000E+00
   1.150000      0.0000000E+00
   1.160000      0.0000000E+00
   1.170000      0.0000000E+00
   1.180000      0.0000000E+00
   1.190000      0.0000000E+00
   1.200000      0.0000000E+00
   1.210000      0.0000000E+00
   1.220000      0.0000000E+00
   1.230000      0.0000000E+00
   1.240000      0.0000000E+00
   1.250000      0.0000000E+00
   1.260000      0.0000000E+00
   1.270000      0.0000000E+00
   1.280000      0.0000000E+00
   1.290000      0.0000000E+00
   1.300000      0.0000000E+00
   1.310000      0.0000000E+00
   1.320000      0.0000000E+00
   1.330000      0.0000000E+00
   1.340000      0.0000000E+00
   1.350000      0.0000000E+00
   1.360000      0.0000000E+00
   1.370000      0.0000000E+00
   1.380000      0.0000000E+00
   1.390000      0.0000000E+00
   1.400000      0.0000000E+00
   1.410000      0.0000000E+00
   1.420000      0.0000000E+00
   1.430000      0.0000000E+00
   1.440000      0.0000000E+00
   1.450000      0.0000000E+00
   1.460000      0.0000000E+00
   1.470000      0.0000000E+00
   1.480000      0.0000000E+00
   1.490000      0.0000000E+00
   1.500000      0.0000000E+00
   1.510000      0.0000000E+00
   1.520000      0.0000000E+00
   1.530000      0.0000000E+00
   1.540000      0.0000000E+00
   1.550000      0.0000000E+00
   1.560000      0.0000000E+00
   1.570000      0.0000000E+00
   1.580000      0.0000000E+00
   1.590000      0.0000000E+00
   1.600000      0.0000000E+00
   1.610000      0.0000000E+00
   1.620000      0.0000000E+00
   1.630000      0.0000000E+00
   1.640000      0.0000000E+00
   1.650000      0.0000000E+00
   1.660000      0.0000000E+00
   1.670000      0.0000000E+00
   1.680000      0.0000000E+00
   1.690000      0.0000000E+00
   1.700000      0.0000000E+00
   1.710000      0.0000000E+00
   1.720000      0.0000000E+00
   1.730000      0.0000000E+00
   1.740000      0.0000000E+00
   1.750000      0.0000000E+00
   1.760000      0.0000000E+00
   1.770000      0.0000000E+00
   1.780000      0.0000000E+00
   1.790000      0.0000000E+00
   1.800000      0.0000000E+00
   1.810000      0.0000000E+00
   1.820000      0.0000000E+00
   1.830000      0.0000000E+00
   1.840000      0.0000000E+00
   1.850000      0.0000000E+00
   1.860000      0.0000000E+00
   1.870000      0.0000000E+00
   1.880000      0.0000000E+00
   1.890000      0.0000000E+00
   1.900000      0.0000000E+00
   1.910000      0.0000000E+00
   1.920000      0.0000000E+00
   1.930000      0.0000000E+00
   1.940000      0.0000000E+00
   1.950000      0.0000000E+00
   1.960000      0.0000000E+00
   1.970000      0.0000000E+00
   1.980000      0.0000000E+00
   1.990000      0.0000000E+00
   2.000000      0.0000000E+00
   2.010000      0.0000000E+00
   2.020000      0.0000000E+00
   2.030000      0.0000000E+00
   2.040000      0.0000000E+00
   2.050000      0.0000000E+00
   2.060000      0.0000000E+00
   2.070000      0.0000000E+00
   2.080000      0.0000000E+00
   2.090000      0.0000000E+00
   2.100000      0.0000000E+00
   2.110000      0.0000000E+00
   2.120000      0.0000000E+00
   2.130000      0.0000000E+00
   2.140000      0.0000000E+00
   2.150000      0.0000000E+00
   2.160000      0.0000000E+00
   2.170000      0.0000000E+00
   2.180000      0.0000000E+00
   2.190000      0.0000000E+00
   2.200000      0.0000000E+00
   2.210000      0.0000000E+00
   2.220000      0.0000000E+00
   2.230000      0.0000000E+00
   2.240000      0.0000000E+00
   2.250000      0.0000000E+00
   2.260000      0.0000000E+00
   2.270000      0.0000000E+00
   2.280000      0.0000000E+00
   2.290000      0.0000000E+00
   2.300000      0.0000000E+00
   2.310000      0.0000000E+00
   2.320000      0.0000000E+00
   2.330000      0.0000000E+00
   2.340000      0.0000000E+00
   2.350000      0.0000000E+00
   2.360000      0.0000000E+00
   2.370000      0.0000000E+00
   2.380000      0.0000000E+00
   2.390000      1.2986559E-38
   2.400000      1.4458299E-38
   2.410000      1.6041779E-38
   2.420000      1.7744717E-38
   2.430000      1.9573991E-38
   2.440000      2.1697050E-38
   2.450000      2.3539149E-38
   2.460000      2.4747511E-38
   2.470000      2.6028169E-38
   2.480000      2.7556198E-38
   2.490000      2.9078417E-38
   2.500000      3.0536292E-38
   2.510000      3.2037167E-38
   2.520000      3.3602935E-38
   2.530000      3.5279356E-38
   2.540000      3.7481155E-38
   2.550000      4.0300464E-38
   2.560000      4.3159057E-38
   2.570000      4.6186405E-38
   2.580000      4.9341316E-38
   2.590000      5.2578691E-38
   2.600000      5.5941163E-38
   2.610000      5.9173034E-38
   2.620000      6.1439348E-38
   2.630000      6.3679952E-38
   2.640000      6.6632644E-38
   2.650000      7.0218113E-38
   2.660000      7.3531186E-38
   2.670000      7.5764083E-38
   2.680000      7.7649984E-38
   2.690000      7.9243260E-38
   2.700000      8.0120024E-38
   2.710000      7.9992063E-38
   2.720000      7.9909230E-38
   2.730000      8.1782222E-38
   2.740000      8.5423743E-38
   2.750000      9.0023707E-38
   2.760000      9.5980189E-38
   2.770000      1.0075330E-37
   2.780000      1.0442897E-37
   2.790000      1.0797569E-37
   2.800000      1.1079157E-37
   2.810000      1.1259755E-37
   2.820000      1.1228635E-37
   2.830000      1.1284599E-37
   2.840000      1.1582462E-37
   2.850000      1.1886992E-37
   2.860000      1.2059686E-37
   2.870000      1.2090413E-37
   2.880000      1.2101649E-37
   2.890000      1.2119580E-37
   2.900000      1.2227832E-37
   2.910000      1.2709442E-37
   2.920000      1.3866933E-37
   2.930000      1.5690125E-37
   2.940000      1.7970896E-37
   2.950000      2.0568860E-37
   2.960000      2.3494029E-37
   2.970000      2.6708986E-37
   2.980000      3.0186148E-37
   2.990000      3.4069518E-37
   3.000000      3.7913258E-37
   3.010000      4.0791422E-37
   3.020000      4.2553596E-37
   3.030000      4.3310077E-37
   3.040000      4.3213291E-37
   3.050000      4.2850698E-37
   3.060000      4.3200103E-37
   3.070000      4.4433959E-37
   3.080000      4.6145314E-37
   3.090000      4.8420422E-37
   3.100000      5.2010567E-37
   3.110000      5.7985955E-37
   3.120000      6.3267043E-37
   3.130000      6.6116324E-37
   3.140000      6.9816272E-37
   3.150000      7.5399740E-37
   3.160000      8.4013802E-37
   3.170000      9.9728165E-37
   3.180000      1.2065356E-36
   3.190000      1.4306123E-36
   3.200000      1.6866853E-36
   3.210000      1.9828699E-36
   3.220000      2.3170664E-36
   3.230000      2.6790350E-36
   3.240000      3.0603501E-36
   3.250000      3.4621534E-36
   3.260000      3.8656208E-36
   3.270000      4.2798982E-36
   3.280000      4.7165394E-36
   3.290000      5.1744682E-36
   3.300000      5.6504777E-36
   3.310000      6.1453207E-36
   3.320000      6.6426688E-36
   3.330000      7.0820170E-36
   3.340000      7.5516221E-36
   3.350000      7.9840797E-36
   3.360000      8.2984097E-36
   3.370000      8.5684642E-36
   3.380000      8.7094933E-36
   3.390000      8.7206298E-36
   3.400000      8.6968983E-36
   3.410000      8.6731057E-36
   3.420000      8.6012580E-36
   3.430000      8.3931043E-36
   3.440000      8.0454373E-36
   3.450000      7.6347268E-36
   3.460000      7.1510163E-36
   3.470000      6.7342029E-36
   3.480000      6.3649037E-36
   3.490000      5.9439359E-36
   3.500000      5.5643156E-36
   3.510000      5.2698461E-36
   3.520000      4.9914325E-36
   3.530000      4.5538679E-36
   3.540000      3.7510700E-36
   3.550000      2.8019069E-36
   3.560000      1.8588500E-36
   3.570000      5.0601829E-37
   3.580000     -1.2553334E-36
   3.590000     -3.1308830E-36
   3.600000     -5.1541585E-36
   3.610000     -7.4493955E-36
   3.620000     -1.0144035E-35
   3.630000     -1.3394550E-35
   3.640000     -1.7248157E-35
   3.650000     -2.1447321E-35
   3.660000     -2.5951294E-35
   3.670000     -3.0788619E-35
   3.680000     -3.5720814E-35
   3.690000     -4.0475597E-35
   3.700000     -4.4992675E-35
   3.710000     -4.9572732E-35
   3.720000     -5.4507857E-35
   3.730000     -5.9720147E-35
   3.740000     -6.5249797E-35
   3.750000     -7.1277070E-35
   3.760000     -7.7577151E-35
   3.770000     -8.3787665E-35
   3.780000     -9.0099857E-35
   3.790000     -9.6450723E-35
   3.800000     -1.0263970E-34
   3.810000     -1.0880966E-34
   3.820000     -1.1477736E-34
   3.830000     -1.2043665E-34
   3.840000     -1.2576224E-34
   3.850000     -1.3094511E-34
   3.860000     -1.3546145E-34
   3.870000     -1.3916977E-34
   3.880000     -1.4252758E-34
   3.890000     -1.4510215E-34
   3.900000     -1.4657213E-34
   3.910000     -1.4704335E-34
   3.920000     -1.4649355E-34
   3.930000     -1.4473477E-34
   3.940000     -1.4190509E-34
   3.950000     -1.3838420E-34
   3.960000     -1.3402417E-34
   3.970000     -1.2837637E-34
   3.980000     -1.2181180E-34
   3.990000     -1.1461879E-34
   4.000000     -1.0651074E-34
   4.010000     -9.7308088E-35
   4.020000     -8.7355698E-35
   4.030000     -7.6016212E-35
   4.040000     -6.2783859E-35
   4.050000     -4.7828079E-35
   4.060000     -3.1126892E-35
   4.070000     -1.3183426E-35
   4.080000      5.9772392E-36
   4.090000      2.6429395E-35
   4.100000      4.8710420E-35
   4.110000      7.3652407E-35
   4.120000      1.0086422E-34
   4.130000      1.2903569E-34
   4.140000      1.5816189E-34
   4.150000      1.8946161E-34
   4.160000      2.2302039E-34
   4.170000      2.5814196E-34
   4.180000      2.9435074E-34
   4.190000      3.3184984E-34
   4.200000      3.7067192E-34
   4.210000      4.1177301E-34
   4.220000      4.5413222E-34
   4.230000      4.9660834E-34
   4.240000      5.3976570E-34
   4.250000      5.8379444E-34
   4.260000      6.2627230E-34
   4.270000      6.6497876E-34
   4.280000      7.0020176E-34
   4.290000      7.3424454E-34
   4.300000      7.6894283E-34
   4.310000      8.0132954E-34
   4.320000      8.2870341E-34
   4.330000      8.4977010E-34
   4.340000      8.6484444E-34
   4.350000      8.7631772E-34
   4.360000      8.8261378E-34
   4.370000      8.7998122E-34
   4.380000      8.6853154E-34
   4.390000      8.5084788E-34
   4.400000      8.2808388E-34
   4.410000      7.9900417E-34
   4.420000      7.6670572E-34
   4.430000      7.2891872E-34
   4.440000      6.7571406E-34
   4.450000      6.1106664E-34
   4.460000      5.4130564E-34
   4.470000      4.6095170E-34
   4.480000      3.6703927E-34
   4.490000      2.6013203E-34
   4.500000      1.4242775E-34
   4.510000      1.3742584E-35
   4.520000     -1.2837794E-34
   4.530000     -2.8320432E-34
   4.540000     -4.4502480E-34
   4.550000     -6.1432115E-34
   4.560000     -7.9640165E-34
   4.570000     -9.9045409E-34
   4.580000     -1.1939200E-33
   4.590000     -1.4075126E-33
   4.600000     -1.6311532E-33
   4.610000     -1.8610911E-33
   4.620000     -2.0971907E-33
   4.630000     -2.3404146E-33
   4.640000     -2.5897013E-33
   4.650000     -2.8431996E-33
   4.660000     -3.0997184E-33
   4.670000     -3.3594758E-33
   4.680000     -3.6204418E-33
   4.690000     -3.8810988E-33
   4.700000     -4.1408412E-33
   4.710000     -4.3942760E-33
   4.720000     -4.6374016E-33
   4.730000     -4.8653160E-33
   4.740000     -5.0770255E-33
   4.750000     -5.2743645E-33
   4.760000     -5.4503221E-33
   4.770000     -5.5983389E-33
   4.780000     -5.7174065E-33
   4.790000     -5.8028323E-33
   4.800000     -5.8494076E-33
   4.810000     -5.8529829E-33
   4.820000     -5.8088615E-33
   4.830000     -5.7154633E-33
   4.840000     -5.5686400E-33
   4.850000     -5.3646892E-33
   4.860000     -5.0976025E-33
   4.870000     -4.7596225E-33
   4.880000     -4.3466574E-33
   4.890000     -3.8549816E-33
   4.900000     -3.2816801E-33
   4.910000     -2.6194345E-33
   4.920000     -1.8623469E-33
   4.930000     -1.0111222E-33
   4.940000     -6.1455023E-35
   4.950000      9.9423762E-34
   4.960000      2.1565900E-33
   4.970000      3.4285247E-33
   4.980000      4.8145596E-33
   4.990000      6.3156814E-33
   5.000000      7.9339866E-33
   5.010000      9.6701315E-33
   5.020000      1.1523409E-32
   5.030000      1.3492456E-32
   5.040000      1.5575698E-32
   5.050000      1.7772503E-32
   5.060000      2.0081233E-32
   5.070000      2.2500793E-32
   5.080000      2.5024826E-32
   5.090000      2.7644030E-32
   5.100000      3.0352240E-32
   5.110000      3.3139211E-32
   5.120000      3.5995638E-32
   5.130000      3.8912134E-32
   5.140000      4.1875208E-32
   5.150000      4.4869842E-32
   5.160000      4.7879898E-32
   5.170000      5.0887333E-32
   5.180000      5.3872401E-32
   5.190000      5.6813787E-32
   5.200000      5.9687930E-32
   5.210000      6.2469232E-32
   5.220000      6.5130498E-32
   5.230000      6.7642377E-32
   5.240000      6.9973541E-32
   5.250000      7.2090541E-32
   5.260000      7.3957802E-32
   5.270000      7.5538877E-32
   5.280000      7.6793494E-32
   5.290000      7.7679265E-32
   5.300000      7.8154247E-32
   5.310000      7.8173854E-32
   5.320000      7.7690114E-32
   5.330000      7.6654839E-32
   5.340000      7.5019309E-32
   5.350000      7.2731979E-32
   5.360000      6.9740740E-32
   5.370000      6.5992852E-32
   5.380000      6.1434520E-32
   5.390000      5.6011683E-32
   5.400000      4.9669903E-32
   5.410000      4.2354842E-32
   5.420000      3.4012806E-32
   5.430000      2.4590662E-32
   5.440000      1.4036618E-32
   5.450000      2.2998980E-33
   5.460000     -1.0668416E-32
   5.470000     -2.4914447E-32
   5.480000     -4.0481037E-32
   5.490000     -5.7409299E-32
   5.500000     -7.5736695E-32
   5.510000     -9.5494722E-32
   5.520000     -1.1671083E-31
   5.530000     -1.3940698E-31
   5.540000     -1.6359898E-31
   5.550000     -1.8929597E-31
   5.560000     -2.1649956E-31
   5.570000     -2.4520326E-31
   5.580000     -2.7539200E-31
   5.590000     -3.0704054E-31
   5.600000     -3.4011168E-31
   5.610000     -3.7456086E-31
   5.620000     -4.1033118E-31
   5.630000     -4.4734994E-31
   5.640000     -4.8553239E-31
   5.650000     -5.2477895E-31
   5.660000     -5.6497606E-31
   5.670000     -6.0599376E-31
   5.680000     -6.4768535E-31
   5.690000     -6.8988569E-31
   5.700000     -7.3241108E-31
   5.710000     -7.7506074E-31
   5.720000     -8.1761331E-31
   5.730000     -8.5982729E-31
   5.740000     -9.0144007E-31
   5.750000     -9.4216803E-31
   5.760000     -9.8170527E-31
   5.770000     -1.0197241E-30
   5.780000     -1.0558741E-30
   5.790000     -1.0897818E-30
   5.800000     -1.1210513E-30
   5.810000     -1.1492636E-30
   5.820000     -1.1739769E-30
   5.830000     -1.1947265E-30
   5.840000     -1.2110255E-30
   5.850000     -1.2223650E-30
   5.860000     -1.2282150E-30
   5.870000     -1.2280246E-30
   5.880000     -1.2212234E-30
   5.890000     -1.2072228E-30
   5.900000     -1.1854164E-30
   5.910000     -1.1551821E-30
   5.920000     -1.1158837E-30
   5.930000     -1.0668726E-30
   5.940000     -1.0074901E-30
   5.950000     -9.3706930E-31
   5.960000     -8.5493864E-31
   5.970000     -7.6042353E-31
   5.980000     -6.5285014E-31
   5.990000     -5.3154872E-31
   6.000000     -3.9585684E-31
   6.010000     -2.4512410E-31
   6.020000     -7.8715516E-32
   6.030000      1.0398374E-31
   6.040000      3.0356340E-31
   6.050000      5.2058319E-31
   6.060000      7.5556733E-31
   6.070000      1.0089988E-30
   6.080000      1.2813138E-30
   6.090000      1.5728949E-30
   6.100000      1.8840650E-30
   6.110000      2.2150807E-30
   6.120000      2.5661245E-30
   6.130000      2.9372982E-30
   6.140000      3.3286148E-30
   6.150000      3.7399912E-30
   6.160000      4.1712400E-30
   6.170000      4.6220603E-30
   6.180000      5.0920316E-30
   6.190000      5.5806028E-30
   6.200000      6.0870852E-30
   6.210000      6.6106432E-30
   6.220000      7.1502858E-30
   6.230000      7.7048573E-30
   6.240000      8.2730299E-30
   6.250000      8.8532923E-30
   6.260000      9.4439442E-30
   6.270000      1.0043084E-29
   6.280000      1.0648607E-29
   6.290000      1.1258188E-29
   6.300000      1.1869283E-29
   6.310000      1.2479114E-29
   6.320000      1.3084667E-29
   6.330000      1.3682687E-29
   6.340000      1.4269665E-29
   6.350000      1.4841838E-29
   6.360000      1.5395183E-29
   6.370000      1.5925417E-29
   6.380000      1.6427987E-29
   6.390000      1.6898073E-29
   6.400000      1.7330586E-29
   6.410000      1.7720171E-29
   6.420000      1.8061201E-29
   6.430000      1.8347787E-29
   6.440000      1.8573778E-29
   6.450000      1.8732774E-29
   6.460000      1.8818120E-29
   6.470000      1.8822932E-29
   6.480000      1.8740088E-29
   6.490000      1.8562263E-29
   6.500000      1.8281928E-29
   6.510000      1.7891367E-29
   6.520000      1.7382708E-29
   6.530000      1.6747932E-29
   6.540000      1.5978907E-29
   6.550000      1.5067403E-29
   6.560000      1.4005137E-29
   6.570000      1.2783786E-29
   6.580000      1.1395032E-29
   6.590000      9.8306010E-30
   6.600000      8.0822982E-30
   6.610000      6.1420468E-30
   6.620000      4.0019417E-30
   6.630000      1.6543014E-30
   6.640000     -9.0829019E-31
   6.650000     -3.6929236E-30
   6.660000     -6.7063070E-30
   6.670000     -9.9546993E-30
   6.680000     -1.3443852E-29
   6.690000     -1.7178942E-29
   6.700000     -2.1164502E-29
   6.710000     -2.5404340E-29
   6.720000     -2.9901477E-29
   6.730000     -3.4658045E-29
   6.740000     -3.9675231E-29
   6.750000     -4.4953182E-29
   6.760000     -5.0490914E-29
   6.770000     -5.6286217E-29
   6.780000     -6.2335606E-29
   6.790000     -6.8634173E-29
   6.800000     -7.5175534E-29
   6.810000     -8.1951702E-29
   6.820000     -8.8953035E-29
   6.830000     -9.6168080E-29
   6.840000     -1.0358353E-28
   6.850000     -1.1118412E-28
   6.860000     -1.1895250E-28
   6.870000     -1.2686914E-28
   6.880000     -1.3491232E-28
   6.890000     -1.4305790E-28
   6.900000     -1.5127934E-28
   6.910000     -1.5954761E-28
   6.920000     -1.6783106E-28
   6.930000     -1.7609536E-28
   6.940000     -1.8430341E-28
   6.950000     -1.9241535E-28
   6.960000     -2.0038840E-28
   6.970000     -2.0817690E-28
   6.980000     -2.1573215E-28
   6.990000     -2.2300251E-28
   7.000000     -2.2993331E-28
   7.010000     -2.3646679E-28
   7.020000     -2.4254220E-28
   7.030000     -2.4809570E-28
   7.040000     -2.5306045E-28
   7.050000     -2.5736669E-28
   7.060000     -2.6094165E-28