  -2.600000      0.0000000E+00
  -2.590000      0.0000000E+00
  -2.580000      0.0000000E+00
  -2.570000      0.0000000E+00
  -2.560000      0.0000000E+00
  -2.550000      0.0000000E+00
  -2.540000      0.0000000E+00
  -2.530000      0.0000000E+00
  -2.520000      0.0000000E+00
  -2.510000      0.0000000E+00
  -2.500000      0.0000000E+00
  -2.490000      0.0000000E+00
  -2.480000      0.0000000E+00
  -2.470000      0.0000000E+00
  -2.460000      0.0000000E+00
  -2.450000      0.0000000E+00
  -2.440000      0.0000000E+00
  -2.430000      0.0000000E+00
  -2.420000      0.0000000E+00
  -2.410000      0.0000000E+00
  -2.400000      0.0000000E+00
  -2.390000      0.0000000E+00
  -2.380000      0.0000000E+00
  -2.370000      0.0000000E+00
  -2.360000      0.0000000E+00
  -2.350000      0.0000000E+00
  -2.340000      0.0000000E+00
  -2.330000      0.0000000E+00
  -2.320000      0.0000000E+00
  -2.310000      0.0000000E+00
  -2.300000      0.0000000E+00
  -2.290000      0.0000000E+00
  -2.280000      0.0000000E+00
  -2.270000      0.0000000E+00
  -2.260000      0.0000000E+00
  -2.250000      0.0000000E+00
  -2.240000      0.0000000E+00
  -2.230000      0.0000000E+00
  -2.220000      0.0000000E+00
  -2.210000      0.0000000E+00
  -2.200000      0.0000000E+00
  -2.190000      0.0000000E+00
  -2.180000      0.0000000E+00
  -2.170000      0.0000000E+00
  -2.160000      0.0000000E+00
  -2.150000      0.0000000E+00
  -2.140000      0.0000000E+00
  -2.130000      0.0000000E+00
  -2.120000      0.0000000E+00
  -2.110000      0.0000000E+00
  -2.100000      0.0000000E+00
  -2.090000      0.0000000E+00
  -2.080000      0.0000000E+00
  -2.070000      0.0000000E+00
  -2.060000      0.0000000E+00
  -2.050000      0.0000000E+00
  -2.040000      0.0000000E+00
  -2.030000      0.0000000E+00
  -2.020000      0.0000000E+00
  -2.010000      0.0000000E+00
  -2.000000      0.0000000E+00
  -1.990000      0.0000000E+00
  -1.980000      0.0000000E+00
  -1.970000      0.0000000E+00
  -1.960000      0.0000000E+00
  -1.950000      0.0000000E+00
  -1.940000      0.0000000E+00
  -1.930000      0.0000000E+00
  -1.920000      0.0000000E+00
  -1.910000      0.0000000E+00
  -1.900000      0.0000000E+00
  -1.890000      0.0000000E+00
  -1.880000      0.0000000E+00
  -1.870000      0.0000000E+00
  -1.860000      0.0000000E+00
  -1.850000      0.0000000E+00
  -1.840000      0.0000000E+00
  -1.830000      0.0000000E+00
  -1.820000      0.0000000E+00
  -1.810000      0.0000000E+00
  -1.800000      0.0000000E+00
  -1.790000      0.0000000E+00
  -1.780000      0.0000000E+00
  -1.770000      0.0000000E+00
  -1.760000      0.0000000E+00
  -1.750000      0.0000000E+00
  -1.740000      0.0000000E+00
  -1.730000      0.0000000E+00
  -1.720000      0.0000000E+00
  -1.710000      0.0000000E+00
  -1.700000      0.0000000E+00
  -1.690000      0.0000000E+00
  -1.680000      0.0000000E+00
  -1.670000      0.0000000E+00
  -1.660000      0.0000000E+00
  -1.650000      0.0000000E+00
  -1.640000      0.0000000E+00
  -1.630000      0.0000000E+00
  -1.620000      0.0000000E+00
  -1.610000      0.0000000E+00
  -1.600000      0.0000000E+00
  -1.590000      0.0000000E+00
  -1.580000      0.0000000E+00
  -1.570000      0.0000000E+00
  -1.560000      0.0000000E+00
  -1.550000      0.0000000E+00
  -1.540000      0.0000000E+00
  -1.530000      0.0000000E+00
  -1.520000      0.0000000E+00
  -1.510000      0.0000000E+00
  -1.500000      0.0000000E+00
  -1.490000      0.0000000E+00
  -1.480000      0.0000000E+00
  -1.470000      0.0000000E+00
  -1.460000      0.0000000E+00
  -1.450000      0.0000000E+00
  -1.440000      0.0000000E+00
  -1.430000      0.0000000E+00
  -1.420000      0.0000000E+00
  -1.410000      0.0000000E+00
  -1.400000      0.0000000E+00
  -1.390000      0.0000000E+00
  -1.380000      0.0000000E+00
  -1.370000      0.0000000E+00
  -1.360000      0.0000000E+00
  -1.350000      0.0000000E+00
  -1.340000      0.0000000E+00
  -1.330000      0.0000000E+00
  -1.320000      0.0000000E+00
  -1.310000      0.0000000E+00
  -1.300000      0.0000000E+00
  -1.290000      0.0000000E+00
  -1.280000      0.0000000E+00
  -1.270000      0.0000000E+00
  -1.260000      0.0000000E+00
  -1.250000      0.0000000E+00
  -1.240000      0.0000000E+00
  -1.230000      0.0000000E+00
  -1.220000      0.0000000E+00
  -1.210000      0.0000000E+00
  -1.200000      0.0000000E+00
  -1.190000      0.0000000E+00
  -1.180000      0.0000000E+00
  -1.170000      0.0000000E+00
  -1.160000      0.0000000E+00
  -1.150000      0.0000000E+00
  -1.140000      0.0000000E+00
  -1.130000      0.0000000E+00
  -1.120000      0.0000000E+00
  -1.110000      0.0000000E+00
  -1.100000      0.0000000E+00
  -1.090000      0.0000000E+00
  -1.080000      0.0000000E+00
  -1.070000      0.0000000E+00
  -1.060000      0.0000000E+00
  -1.050000      0.0000000E+00
  -1.040000      0.0000000E+00
  -1.030000      0.0000000E+00
  -1.020000      0.0000000E+00
  -1.010000      0.0000000E+00
  -1.000000      0.0000000E+00
 -0.9900000      0.0000000E+00
 -0.9800000      0.0000000E+00
 -0.9700000      0.0000000E+00
 -0.9600000      0.0000000E+00
 -0.9500000      0.0000000E+00
 -0.9400000      0.0000000E+00
 -0.9300000      0.0000000E+00
 -0.9200000      0.0000000E+00
 -0.9100000      0.0000000E+00
 -0.9000000      0.0000000E+00
 -0.8900000      0.0000000E+00
 -0.8800000      0.0000000E+00
 -0.8700000      0.0000000E+00
 -0.8600000      0.0000000E+00
 -0.8500000      0.0000000E+00
 -0.8400000      0.0000000E+00
 -0.8300000      0.0000000E+00
 -0.8200000      0.0000000E+00
 -0.8100000      0.0000000E+00
 -0.8000000      0.0000000E+00
 -0.7900000      0.0000000E+00
 -0.7800000      0.0000000E+00
 -0.7700000      0.0000000E+00
 -0.7600000      0.0000000E+00
 -0.7500000      0.0000000E+00
 -0.7400000      0.0000000E+00
 -0.7300000      0.0000000E+00
 -0.7200000      0.0000000E+00
 -0.7100000      0.0000000E+00
 -0.7000000      0.0000000E+00
 -0.6900000      0.0000000E+00
 -0.6800000      0.0000000E+00
 -0.6700000      0.0000000E+00
 -0.6600000      0.0000000E+00
 -0.6500000      0.0000000E+00
 -0.6400000      0.0000000E+00
 -0.6300000      0.0000000E+00
 -0.6200000      0.0000000E+00
 -0.6100000      0.0000000E+00
 -0.6000000      0.0000000E+00
 -0.5900000      0.0000000E+00
 -0.5800000      0.0000000E+00
 -0.5700000      0.0000000E+00
 -0.5600000      0.0000000E+00
 -0.5500000      0.0000000E+00
 -0.5400000      0.0000000E+00
 -0.5300000      0.0000000E+00
 -0.5200000      0.0000000E+00
 -0.5100000      0.0000000E+00
 -0.5000000      0.0000000E+00
 -0.4900000      0.0000000E+00
 -0.4800000      0.0000000E+00
 -0.4700000      0.0000000E+00
 -0.4600000      0.0000000E+00
 -0.4500000      0.0000000E+00
 -0.4400000      0.0000000E+00
 -0.4300000      0.0000000E+00
 -0.4200000      0.0000000E+00
 -0.4100000      0.0000000E+00
 -0.4000000      0.0000000E+00
 -0.3900000      0.0000000E+00
 -0.3800000      0.0000000E+00
 -0.3700000      0.0000000E+00
 -0.3600000      0.0000000E+00
 -0.3500000      0.0000000E+00
 -0.3400000      0.0000000E+00
 -0.3300000      0.0000000E+00
 -0.3200000      0.0000000E+00
 -0.3100000      0.0000000E+00
 -0.3000000      0.0000000E+00
 -0.2900000      0.0000000E+00
 -0.2800000      0.0000000E+00
 -0.2700000      0.0000000E+00
 -0.2600000      0.0000000E+00
 -0.2500000      0.0000000E+00
 -0.2400000      0.0000000E+00
 -0.2300000      0.0000000E+00
 -0.2200000      0.0000000E+00
 -0.2100000      0.0000000E+00
 -0.2000000      0.0000000E+00
 -0.1900000      0.0000000E+00
 -0.1800000      0.0000000E+00
 -0.1700000      0.0000000E+00
 -0.1600000      0.0000000E+00
 -0.1500000      0.0000000E+00
 -0.1400000      0.0000000E+00
 -0.1300000      0.0000000E+00
 -0.1200000      0.0000000E+00
 -0.1100000      0.0000000E+00
 -0.1000000      0.0000000E+00
 -9.0000004E-02  0.0000000E+00
 -7.9999998E-02  0.0000000E+00
 -7.0000000E-02  0.0000000E+00
 -5.9999999E-02  0.0000000E+00
 -5.0000001E-02  0.0000000E+00
 -3.9999999E-02  0.0000000E+00
 -2.9999999E-02  0.0000000E+00
 -2.0000000E-02  0.0000000E+00
 -9.9999998E-03  0.0000000E+00
 -3.4694470E-17  0.0000000E+00
  9.9999998E-03  0.0000000E+00
  2.0000000E-02  0.0000000E+00
  2.9999999E-02  0.0000000E+00
  3.9999999E-02  0.0000000E+00
  5.0000001E-02  0.0000000E+00
  5.9999999E-02  0.0000000E+00
  7.0000000E-02  0.0000000E+00
  7.9999998E-02  0.0000000E+00
  9.0000004E-02  0.0000000E+00
  0.1000000      0.0000000E+00
  0.1100000      0.0000000E+00
  0.1200000      0.0000000E+00
  0.1300000      0.0000000E+00
  0.1400000      0.0000000E+00
  0.1500000      0.0000000E+00
  0.1600000      0.0000000E+00
  0.1700000      0.0000000E+00
  0.1800000      0.0000000E+00
  0.1900000      0.0000000E+00
  0.2000000      0.0000000E+00
  0.2100000      0.0000000E+00
  0.2200000      0.0000000E+00
  0.2300000      0.0000000E+00
  0.2400000      0.0000000E+00
  0.2500000      0.0000000E+00
  0.2600000      0.0000000E+00
  0.2700000      0.0000000E+00
  0.2800000      0.0000000E+00
  0.2900000      0.0000000E+00
  0.3000000      0.0000000E+00
  0.3100000      0.0000000E+00
  0.3200000      0.0000000E+00
  0.3300000      0.0000000E+00
  0.3400000      0.0000000E+00
  0.3500000      0.0000000E+00
  0.3600000      0.0000000E+00
  0.3700000      0.0000000E+00
  0.3800000      0.0000000E+00
  0.3900000      0.0000000E+00
  0.4000000      0.0000000E+00
  0.4100000      0.0000000E+00
  0.4200000      0.0000000E+00
  0.4300000      0.0000000E+00
  0.4400000      0.0000000E+00
  0.4500000      0.0000000E+00
  0.4600000      0.0000000E+00
  0.4700000      0.0000000E+00
  0.4800000      0.0000000E+00
  0.4900000      0.0000000E+00
  0.5000000      0.0000000E+00
  0.5100000      0.0000000E+00
  0.5200000      0.0000000E+00
  0.5300000      0.0000000E+00
  0.5400000      0.0000000E+00
  0.5500000      0.0000000E+00
  0.5600000      0.0000000E+00
  0.5700000      0.0000000E+00
  0.5800000      0.0000000E+00
  0.5900000      0.0000000E+00
  0.6000000      0.0000000E+00
  0.6100000      0.0000000E+00
  0.6200000      0.0000000E+00
  0.6300000      0.0000000E+00
  0.6400000      0.0000000E+00
  0.6500000      0.0000000E+00
  0.6600000      0.0000000E+00
  0.6700000      0.0000000E+00
  0.6800000      0.0000000E+00
  0.6900000      0.0000000E+00
  0.7000000      0.0000000E+00
  0.7100000      0.0000000E+00
  0.7200000      0.0000000E+00
  0.7300000      0.0000000E+00
  0.7400000      0.0000000E+00
  0.7500000      0.0000000E+00
  0.7600000      0.0000000E+00
  0.7700000      0.0000000E+00
  0.7800000      0.0000000E+00
  0.7900000      0.0000000E+00
  0.8000000      1.5117027E-38
  0.8100000      1.9253308E-38
  0.8200000      2.2942734E-38
  0.8300000      2.5065424E-38
  0.8400000      2.6110226E-38
  0.8500000      2.6066979E-38
  0.8600000      2.7260748E-38
  0.8700000      3.1545471E-38
  0.8800000      3.7671233E-38
  0.8900000      4.5747050E-38
  0.9000000      5.8068228E-38
  0.9100000      7.5483554E-38
  0.9200000      9.7294215E-38
  0.9300000      1.2185315E-37
  0.9400000      1.4808150E-37
  0.9500000      1.7900441E-37
  0.9600000      2.1349674E-37
  0.9700000      2.5659988E-37
  0.9800000      3.0815477E-37
  0.9900000      3.6479241E-37
   1.000000      4.3538415E-37
   1.010000      7.0432682E-37
   1.020000      1.1330099E-36
   1.030000      1.5426919E-36
   1.040000      1.9954503E-36
   1.050000      2.4896416E-36
   1.060000      3.0220504E-36
   1.070000      3.3677712E-36
   1.080000      3.4753504E-36
   1.090000      3.5391599E-36
   1.100000      3.5569480E-36
   1.110000      3.5194017E-36
   1.120000      3.4225260E-36
   1.130000      3.2529144E-36
   1.140000      3.0390292E-36
   1.150000      2.5565802E-36
   1.160000      1.7820386E-36
   1.170000      8.5284164E-37
   1.180000     -2.5147054E-37
   1.190000     -1.3893477E-36
   1.200000     -2.5088835E-36
   1.210000     -3.6023532E-36
   1.220000     -4.5653161E-36
   1.230000     -5.2768285E-36
   1.240000     -5.9340152E-36
   1.250000     -6.7827373E-36
   1.260000     -7.7833862E-36
   1.270000     -8.6742587E-36
   1.280000     -9.5308248E-36
   1.290000     -1.0600358E-35
   1.300000     -1.1756299E-35
   1.310000     -1.2838849E-35
   1.320000     -1.3958891E-35
   1.330000     -1.5257162E-35
   1.340000     -1.6770611E-35
   1.350000     -1.8533766E-35
   1.360000     -2.0638969E-35
   1.370000     -2.2963163E-35
   1.380000     -2.5422051E-35
   1.390000     -2.7867895E-35
   1.400000     -3.0111800E-35
   1.410000     -3.2272534E-35
   1.420000     -3.4295427E-35
   1.430000     -3.6060987E-35
   1.440000     -3.7448636E-35
   1.450000     -3.8438355E-35
   1.460000     -3.8972697E-35
   1.470000     -3.8863186E-35
   1.480000     -3.7994227E-35
   1.490000     -3.6333948E-35
   1.500000     -3.3812682E-35
   1.510000     -3.0380310E-35
   1.520000     -2.5948854E-35
   1.530000     -2.0548639E-35
   1.540000     -1.4215245E-35
   1.550000     -6.7049304E-36
   1.560000      2.0563654E-36
   1.570000      1.2035210E-35
   1.580000      2.2865799E-35
   1.590000      3.4256155E-35
   1.600000      4.6378203E-35
   1.610000      5.9232472E-35
   1.620000      7.2678910E-35
   1.630000      8.6554777E-35
   1.640000      1.0145292E-34
   1.650000      1.1670651E-34
   1.660000      1.3275893E-34
   1.670000      1.4969335E-34
   1.680000      1.6589127E-34
   1.690000      1.8116310E-34
   1.700000      1.9629498E-34
   1.710000      2.1108935E-34
   1.720000      2.2481010E-34
   1.730000      2.4088875E-34
   1.740000      2.5904876E-34
   1.750000      2.7607116E-34
   1.760000      2.8934837E-34
   1.770000      2.9789787E-34
   1.780000      3.0136821E-34
   1.790000      2.9930648E-34
   1.800000      2.9413929E-34
   1.810000      2.8368086E-34
   1.820000      2.6616787E-34
   1.830000      2.4510853E-34
   1.840000      2.2031129E-34
   1.850000      1.8906835E-34
   1.860000      1.5126586E-34
   1.870000      1.0621261E-34
   1.880000      5.4628574E-35
   1.890000      1.0268919E-37
   1.900000     -5.7171419E-35
   1.910000     -1.2023429E-34
   1.920000     -1.8608872E-34
   1.930000     -2.5617103E-34
   1.940000     -3.3294757E-34
   1.950000     -4.1634169E-34
   1.960000     -5.1453013E-34
   1.970000     -6.2035222E-34
   1.980000     -7.2492787E-34
   1.990000     -8.2939520E-34
   2.000000     -9.3268975E-34
   2.010000     -1.0365955E-33
   2.020000     -1.1408916E-33
   2.030000     -1.2441410E-33
   2.040000     -1.3435282E-33
   2.050000     -1.4379980E-33
   2.060000     -1.5287485E-33
   2.070000     -1.6141620E-33
   2.080000     -1.6915202E-33
   2.090000     -1.7587282E-33
   2.100000     -1.8132572E-33
   2.110000     -1.8519023E-33
   2.120000     -1.8739156E-33
   2.130000     -1.8815354E-33
   2.140000     -1.8700447E-33
   2.150000     -1.8347693E-33
   2.160000     -1.7736467E-33
   2.170000     -1.6831676E-33
   2.180000     -1.5625224E-33
   2.190000     -1.4104749E-33
   2.200000     -1.2239357E-33
   2.210000     -1.0027812E-33
   2.220000     -7.4674165E-34
   2.230000     -4.5198658E-34
   2.240000     -1.1518821E-34
   2.250000      2.6553028E-34
   2.260000      6.9078095E-34
   2.270000      1.1624492E-33
   2.280000      1.6804819E-33
   2.290000      2.2439565E-33
   2.300000      2.8529307E-33
   2.310000      3.5081380E-33
   2.320000      4.2074756E-33
   2.330000      4.9470338E-33
   2.340000      5.7246641E-33
   2.350000      6.5376477E-33
   2.360000      7.3815278E-33
   2.370000      8.2514032E-33
   2.380000      9.1419467E-33
   2.390000      1.0046417E-32
   2.400000      1.0959708E-32
   2.410000      1.1873094E-32
   2.420000      1.2773459E-32
   2.430000      1.3651301E-32
   2.440000      1.4497387E-32
   2.450000      1.5300211E-32
   2.460000      1.6048276E-32
   2.470000      1.6728944E-32
   2.480000      1.7330000E-32
   2.490000      1.7837992E-32
   2.500000      1.8237316E-32
   2.510000      1.8513154E-32
   2.520000      1.8650173E-32
   2.530000      1.8632533E-32
   2.540000      1.8444157E-32
   2.550000      1.8068866E-32
   2.560000      1.7490395E-32
   2.570000      1.6692500E-32
   2.580000      1.5659236E-32
   2.590000      1.4375043E-32
   2.600000      1.2826346E-32
   2.610000      1.1001457E-32
   2.620000      8.8885916E-33
   2.630000      6.4746817E-33
   2.640000      3.7488418E-33
   2.650000      7.0333629E-34
   2.660000     -2.6684943E-33
   2.670000     -6.3711125E-33
   2.680000     -1.0406700E-32
   2.690000     -1.4774885E-32
   2.700000     -1.9472418E-32
   2.710000     -2.4493006E-32
   2.720000     -2.9827373E-32
   2.730000     -3.5462361E-32
   2.740000     -4.1380540E-32
   2.750000     -4.7561001E-32
   2.760000     -5.3978942E-32
   2.770000     -6.0605003E-32
   2.780000     -6.7405268E-32
   2.790000     -7.4341243E-32
   2.800000     -8.1369670E-32
   2.810000     -8.8442473E-32
   2.820000     -9.5506882E-32
   2.830000     -1.0250538E-31
   2.840000     -1.0937571E-31
   2.850000     -1.1605102E-31
   2.860000     -1.2245999E-31
   2.870000     -1.2852708E-31
   2.880000     -1.3417268E-31
   2.890000     -1.3931342E-31
   2.900000     -1.4386251E-31
   2.910000     -1.4773009E-31
   2.920000     -1.5082366E-31
   2.930000     -1.5304854E-31
   2.940000     -1.5430844E-31
   2.950000     -1.5450598E-31
   2.960000     -1.5354339E-31
   2.970000     -1.5132349E-31
   2.980000     -1.4774955E-31
   2.990000     -1.4272669E-31
   3.000000     -1.3616226E-31
   3.010000     -1.2796955E-31
   3.020000     -1.1806652E-31
   3.030000     -1.0637461E-31
   3.040000     -9.2823335E-32
   3.050000     -7.7350273E-32
   3.060000     -5.9902310E-32
   3.070000     -4.0436568E-32
   3.080000     -1.8922738E-32
   3.090000      4.6564604E-33
   3.100000      3.0304691E-32
   3.110000      5.8009618E-32
   3.120000      8.7741996E-32
   3.130000      1.1945449E-31
   3.140000      1.5308041E-31
   3.150000      1.8853259E-31
   3.160000      2.2570232E-31
   3.170000      2.6445830E-31
   3.180000      3.0464589E-31
   3.190000      3.4608604E-31
   3.200000      3.8857463E-31
   3.210000      4.3188213E-31
   3.220000      4.7575275E-31
   3.230000      5.1990465E-31
   3.240000      5.6402918E-31
   3.250000      6.0779152E-31
   3.260000      6.5083046E-31
   3.270000      6.9275888E-31
   3.280000      7.3316467E-31
   3.290000      7.7161114E-31
   3.300000      8.0763816E-31
   3.310000      8.4076349E-31
   3.320000      8.7048441E-31
   3.330000      8.9627918E-31
   3.340000      9.1760960E-31
   3.350000      9.3392274E-31
   3.360000      9.4465416E-31
   3.370000      9.4923050E-31
   3.380000      9.4707285E-31
   3.390000      9.3760044E-31
   3.400000      9.2023444E-31
   3.410000      8.9440252E-31
   3.420000      8.5954310E-31
   3.430000      8.1511082E-31
   3.440000      7.6058110E-31
   3.450000      6.9545627E-31
   3.460000      6.1927144E-31
   3.470000      5.3160058E-31
   3.480000      4.3206282E-31
   3.490000      3.2032931E-31
   3.500000      1.9612988E-31
   3.510000      5.9260038E-32
   3.520000     -9.0411978E-32
   3.530000     -2.5293784E-31
   3.540000     -4.2828224E-31
   3.550000     -6.1631559E-31
   3.560000     -8.1680701E-31
   3.570000     -1.0294174E-30
   3.580000     -1.2536925E-30
   3.590000     -1.4890565E-30
   3.600000     -1.7348057E-30
   3.610000     -1.9901023E-30
   3.620000     -2.2539690E-30
   3.630000     -2.5252839E-30
   3.640000     -2.8027752E-30
   3.650000     -3.0850176E-30
   3.660000     -3.3704282E-30
   3.670000     -3.6572631E-30
   3.680000     -3.9436169E-30
   3.690000     -4.2274185E-30
   3.700000     -4.5064323E-30
   3.710000     -4.7782578E-30
   3.720000     -5.0403298E-30
   3.730000     -5.2899228E-30
   3.740000     -5.5241516E-30
   3.750000     -5.7399769E-30
   3.760000     -5.9342126E-30
   3.770000     -6.1035312E-30
   3.780000     -6.2444724E-30
   3.790000     -6.3534563E-30
   3.800000     -6.4267914E-30
   3.810000     -6.4606907E-30
   3.820000     -6.4512860E-30
   3.830000     -6.3946471E-30
   3.840000     -6.2868000E-30
   3.850000     -6.1237463E-30
   3.860000     -5.9014895E-30
   3.870000     -5.6160576E-30
   3.880000     -5.2635316E-30
   3.890000     -4.8400737E-30
   3.900000     -4.3419571E-30
   3.910000     -3.7656008E-30
   3.920000     -3.1076021E-30
   3.930000     -2.3647730E-30
   3.940000     -1.5341782E-30
   3.950000     -6.1317260E-31
   3.960000      4.0055736E-31
   3.970000      1.5089531E-30
   3.980000      2.7135407E-30
   3.990000      4.0153868E-30
   4.000000      5.4150545E-30
   4.010000      6.9125605E-30
   4.020000      8.5073283E-30
   4.030000      1.0198142E-29
   4.040000      1.1983101E-29
   4.050000      1.3859570E-29
   4.060000      1.5824142E-29
   4.070000      1.7872583E-29
   4.080000      1.9999794E-29
   4.090000      2.2199763E-29
   4.100000      2.4465527E-29
   4.110000      2.6789129E-29
   4.120000      2.9161568E-29
   4.130000      3.1572784E-29
   4.140000      3.4011607E-29
   4.150000      3.6465717E-29
   4.160000      3.8921645E-29
   4.170000      4.1364720E-29
   4.180000      4.3779069E-29
   4.190000      4.6147581E-29
   4.200000      4.8451923E-29
   4.210000      5.0672511E-29
   4.220000      5.2788542E-29
   4.230000      5.4777968E-29
   4.240000      5.6617550E-29
   4.250000      5.8282853E-29
   4.260000      5.9748299E-29
   4.270000      6.0987208E-29
   4.280000      6.1971839E-29
   4.290000      6.2673456E-29
   4.300000      6.3062409E-29
   4.310000      6.3108216E-29
   4.320000      6.2779635E-29
   4.330000      6.2044802E-29
   4.340000      6.0871321E-29
   4.350000      5.9226384E-29
   4.360000      5.7076950E-29
   4.370000      5.4389845E-29
   4.380000      5.1131965E-29
   4.390000      4.7270422E-29
   4.400000      4.2772740E-29
   4.410000      3.7607074E-29
   4.420000      3.1742395E-29
   4.430000      2.5148715E-29
   4.440000      1.7797346E-29
   4.450000      9.6611454E-30
   4.460000      7.1475826E-31
   4.470000     -9.0650965E-30
   4.480000     -1.9699334E-29
   4.490000     -3.1206204E-29
   4.500000     -4.3600984E-29
   4.510000     -5.6895660E-29
   4.520000     -7.1098593E-29
   4.530000     -8.6214152E-29
   4.540000     -1.0224238E-28
   4.550000     -1.1917869E-28
   4.560000     -1.3701335E-28
   4.570000     -1.5573130E-28
   4.580000     -1.7531160E-28
   4.590000     -1.9572719E-28
   4.600000     -2.1694440E-28
   4.610000     -2.3892266E-28
   4.620000     -2.6161406E-28
   4.630000     -2.8496300E-28
   4.640000     -3.0890592E-28
   4.650000     -3.3337072E-28
   4.660000     -3.5827670E-28
   4.670000     -3.8353397E-28
   4.680000     -4.0904335E-28
   4.690000     -4.3469587E-28
   4.700000     -4.6037271E-28
   4.710000     -4.8594491E-28
   4.720000     -5.1127306E-28
   4.730000     -5.3620711E-28
   4.740000     -5.6058625E-28
   4.750000     -5.8423894E-28
   4.760000     -6.0698268E-28
   4.770000     -6.2862387E-28
   4.780000     -6.4895803E-28
   4.790000     -6.6776984E-28
   4.800000     -6.8483305E-28
   4.810000     -6.9991082E-28
   4.820000     -7.1275595E-28
   4.830000     -7.2311115E-28
   4.840000     -7.3070928E-28
   4.850000     -7.3527402E-28
   4.860000     -7.3652015E-28
   4.870000     -7.3415414E-28
   4.880000     -7.2787508E-28
   4.890000     -7.1737515E-28
   4.900000     -7.0234072E-28
   4.910000     -6.8245304E-28
   4.920000     -6.5738951E-28
   4.930000     -6.2682486E-28
   4.940000     -5.9043210E-28
   4.950000     -5.4788431E-28
   4.960000     -4.9885572E-28
   4.970000     -4.4302359E-28
   4.980000     -3.8006992E-28
   4.990000     -3.0968306E-28
   5.000000     -2.3155983E-28
   5.010000     -1.4540763E-28
   5.020000     -5.0946474E-29
   5.030000      5.2088587E-29
   5.040000      1.6394522E-28
   5.050000      2.8485115E-28
   5.060000      4.1501142E-28
   5.070000      5.5460576E-28
   5.080000      7.0378569E-28
   5.090000      8.6267179E-28
   5.100000      1.0313502E-27
   5.110000      1.2098697E-27
   5.120000      1.3982384E-27
   5.130000      1.5964208E-27
   5.140000      1.8043335E-27
   5.150000      2.0218430E-27
   5.160000      2.2487603E-27
   5.170000      2.4848396E-27
   5.180000      2.7297730E-27
   5.190000      2.9831871E-27
   5.200000      3.2446400E-27
   5.210000      3.5136173E-27
   5.220000      3.7895279E-27
   5.230000      4.0717013E-27
   5.240000      4.3593833E-27
   5.250000      4.6517325E-27
   5.260000      4.9478176E-27
   5.270000      5.2466133E-27
   5.280000      5.5469979E-27
   5.290000      5.8477492E-27
   5.300000      6.1475437E-27
   5.310000      6.4449520E-27
   5.320000      6.7384368E-27
   5.330000      7.0263502E-27
   5.340000      7.3069351E-27
   5.350000      7.5783209E-27
   5.360000      7.8385233E-27
   5.370000      8.0854429E-27
   5.380000      8.3168665E-27
   5.390000      8.5304645E-27
   5.400000      8.7237963E-27
   5.410000      8.8943066E-27
   5.420000      9.0393322E-27
   5.430000      9.1560998E-27
   5.440000      9.2417320E-27
   5.450000      9.2932491E-27
   5.460000      9.3075780E-27
   5.470000      9.2815525E-27
   5.480000      9.2119217E-27
   5.490000      9.0953590E-27
   5.500000      8.9284641E-27
   5.510000      8.7077772E-27
   5.520000      8.4297884E-27
   5.530000      8.0909457E-27
   5.540000      7.6876652E-27
   5.550000      7.2163501E-27
   5.560000      6.6734004E-27
   5.570000      6.0552258E-27
   5.580000      5.3582672E-27
   5.590000      4.5790098E-27
   5.600000      3.7140045E-27
   5.610000      2.7598846E-27
   5.620000      1.7133866E-27
   5.630000      5.7137488E-28
   5.640000     -6.6913586E-28
   5.650000     -2.0109569E-27
   5.660000     -3.4566984E-27
   5.670000     -5.0087471E-27
   5.680000     -6.6692342E-27
   5.690000     -8.4400059E-27
   5.700000     -1.0322592E-26
   5.710000     -1.2318180E-26
   5.720000     -1.4427579E-26
   5.730000     -1.6651185E-26
   5.740000     -1.8988948E-26
   5.750000     -2.1440337E-26
   5.760000     -2.4004305E-26
   5.770000     -2.6679254E-26
   5.780000     -2.9462996E-26
   5.790000     -3.2352708E-26
   5.800000     -3.5344904E-26
   5.810000     -3.8435402E-26
   5.820000     -4.1619272E-26
   5.830000     -4.4890798E-26
   5.840000     -4.8243457E-26
   5.850000     -5.1669859E-26
   5.860000     -5.5161734E-26
   5.870000     -5.8709876E-26
   5.880000     -6.2304117E-26
   5.890000     -6.5933290E-26
   5.900000     -6.9585211E-26
   5.910000     -7.3246610E-26
   5.920000     -7.6903141E-26
   5.930000     -8.0539346E-26
   5.940000     -8.4138622E-26
   5.950000     -8.7683202E-26
   5.960000     -9.1154141E-26
   5.970000     -9.4531298E-26
   5.980000     -9.7793318E-26
   5.990000     -1.0091763E-25
   6.000000     -1.0388047E-25
   6.010000     -1.0665682E-25
   6.020000     -1.0922047E-25
   6.030000     -1.1154400E-25
   6.040000     -1.1359884E-25
   6.050000     -1.1535524E-25
   6.060000     -1.1678233E-25
   6.070000     -1.1784814E-25
   6.080000     -1.1851969E-25
   6.090000     -1.1876297E-25
   6.100000     -1.1854306E-25
   6.110000     -1.1782415E-25
   6.120000     -1.1656968E-25
   6.130000     -1.1474236E-25
   6.140000     -1.1230428E-25
   6.150000     -1.0921709E-25
   6.160000     -1.0544198E-25
   6.170000     -1.0093994E-25
   6.180000     -9.5671769E-26
   6.190000     -8.9598335E-26
   6.200000     -8.2680659E-26
   6.210000     -7.4880095E-26
   6.220000     -6.6158516E-26
   6.230000     -5.6478527E-26
   6.240000     -4.5803612E-26
   6.250000     -3.4098408E-26
   6.260000     -2.1328870E-26
   6.270000     -7.4625440E-27
   6.280000      7.5311873E-27
   6.290000      2.3680857E-26
   6.300000      4.1012650E-26
   6.310000      5.9550124E-26
   6.320000      7.9313893E-26
   6.330000      1.0032134E-25
   6.340000      1.2258635E-25
   6.350000      1.4611893E-25
   6.360000      1.7092492E-25
   6.370000      1.9700562E-25
   6.380000      2.2435749E-25
   6.390000      2.5297174E-25
   6.400000      2.8283410E-25
   6.410000      3.1392431E-25
   6.420000      3.4621592E-25
   6.430000      3.7967570E-25
   6.440000      4.1426350E-25
   6.450000      4.4993185E-25
   6.460000      4.8662546E-25
   6.470000      5.2428090E-25
   6.480000      5.6282647E-25
   6.490000      6.0218151E-25
   6.500000      6.4225633E-25
   6.510000      6.8295169E-25
   6.520000      7.2415873E-25
   6.530000      7.6575837E-25
   6.540000      8.0762130E-25
   6.550000      8.4960744E-25
   6.560000      8.9156586E-25
   6.570000      9.3333486E-25
   6.580000      9.7474099E-25
   6.590000      1.0155998E-24
   6.600000      1.0557149E-24
   6.610000      1.0948784E-24
   6.620000      1.1328708E-24
   6.630000      1.1694608E-24
   6.640000      1.2044052E-24
   6.650000      1.2374493E-24
   6.660000      1.2683269E-24
   6.670000      1.2967602E-24
   6.680000      1.3224606E-24
   6.690000      1.3451283E-24
   6.700000      1.3644533E-24
   6.710000      1.3801153E-24
   6.720000      1.3917841E-24
   6.730000      1.3991210E-24
   6.740000      1.4017784E-24
   6.750000      1.3994010E-24
   6.760000      1.3916262E-24
   6.770000      1.3780857E-24
   6.780000      1.3584056E-24
   6.790000      1.3322078E-24
   6.800000      1.2991112E-24
   6.810000      1.2587328E-24
   6.820000      1.2106886E-24
   6.830000      1.1545954E-24
   6.840000      1.0900724E-24
   6.850000      1.0167422E-24
   6.860000      9.3423308E-25
   6.870000      8.4218011E-25
   6.880000      7.4022748E-25
   6.890000      6.2803036E-25
   6.900000      5.0525644E-25
   6.910000      3.7158884E-25
   6.920000      2.2672772E-25
   6.930000      7.0392629E-26
   6.940000     -9.7674742E-26
   6.950000     -2.7770850E-25
   6.960000     -4.6991591E-25
   6.970000     -6.7447425E-25
   6.980000     -8.9152888E-25
   6.990000     -1.1211904E-24
   7.000000     -1.3635311E-24
   7.010000     -1.6185830E-24
   7.020000     -1.8863341E-24
   7.030000     -2.1667262E-24
   7.040000     -2.4596513E-24
   7.050000     -2.7649486E-24
   7.060000     -3.0824020E-24