  -2.600000      0.0000000E+00
  -2.590000      0.0000000E+00
  -2.580000      0.0000000E+00
  -2.570000      0.0000000E+00
  -2.560000      0.0000000E+00
  -2.550000      0.0000000E+00
  -2.540000      0.0000000E+00
  -2.530000      0.0000000E+00
  -2.520000      0.0000000E+00
  -2.510000      0.0000000E+00
  -2.500000      0.0000000E+00
  -2.490000      0.0000000E+00
  -2.480000      0.0000000E+00
  -2.470000      0.0000000E+00
  -2.460000      0.0000000E+00
  -2.450000      0.0000000E+00
  -2.440000      0.0000000E+00
  -2.430000      0.0000000E+00
  -2.420000      0.0000000E+00
  -2.410000      0.0000000E+00
  -2.400000      0.0000000E+00
  -2.390000      0.0000000E+00
  -2.380000      0.0000000E+00
  -2.370000      0.0000000E+00
  -2.360000      0.0000000E+00
  -2.350000      0.0000000E+00
  -2.340000      0.0000000E+00
  -2.330000      0.0000000E+00
  -2.320000      0.0000000E+00
  -2.310000      0.0000000E+00
  -2.300000      0.0000000E+00
  -2.290000      0.0000000E+00
  -2.280000      0.0000000E+00
  -2.270000      0.0000000E+00
  -2.260000      0.0000000E+00
  -2.250000      0.0000000E+00
  -2.240000      0.0000000E+00
  -2.230000      0.0000000E+00
  -2.220000      0.0000000E+00
  -2.210000      0.0000000E+00
  -2.200000      0.0000000E+00
  -2.190000      0.0000000E+00
  -2.180000      0.0000000E+00
  -2.170000      0.0000000E+00
  -2.160000      0.0000000E+00
  -2.150000      0.0000000E+00
  -2.140000      0.0000000E+00
  -2.130000      0.0000000E+00
  -2.120000      0.0000000E+00
  -2.110000      0.0000000E+00
  -2.100000      0.0000000E+00
  -2.090000      0.0000000E+00
  -2.080000      0.0000000E+00
  -2.070000      0.0000000E+00
  -2.060000      0.0000000E+00
  -2.050000      0.0000000E+00
  -2.040000      0.0000000E+00
  -2.030000      0.0000000E+00
  -2.020000      0.0000000E+00
  -2.010000      0.0000000E+00
  -2.000000      0.0000000E+00
  -1.990000      0.0000000E+00
  -1.980000      0.0000000E+00
  -1.970000      0.0000000E+00
  -1.960000      0.0000000E+00
  -1.950000      0.0000000E+00
  -1.940000      0.0000000E+00
  -1.930000      0.0000000E+00
  -1.920000      0.0000000E+00
  -1.910000      0.0000000E+00
  -1.900000      0.0000000E+00
  -1.890000      0.0000000E+00
  -1.880000      0.0000000E+00
  -1.870000      0.0000000E+00
  -1.860000      0.0000000E+00
  -1.850000      0.0000000E+00
  -1.840000      0.0000000E+00
  -1.830000      0.0000000E+00
  -1.820000      0.0000000E+00
  -1.810000      0.0000000E+00
  -1.800000      0.0000000E+00
  -1.790000      0.0000000E+00
  -1.780000      0.0000000E+00
  -1.770000      0.0000000E+00
  -1.760000      0.0000000E+00
  -1.750000      0.0000000E+00
  -1.740000      0.0000000E+00
  -1.730000      0.0000000E+00
  -1.720000      0.0000000E+00
  -1.710000      0.0000000E+00
  -1.700000      0.0000000E+00
  -1.690000      0.0000000E+00
  -1.680000      0.0000000E+00
  -1.670000      0.0000000E+00
  -1.660000      0.0000000E+00
  -1.650000      0.0000000E+00
  -1.640000      0.0000000E+00
  -1.630000      0.0000000E+00
  -1.620000      0.0000000E+00
  -1.610000      0.0000000E+00
  -1.600000      0.0000000E+00
  -1.590000      0.0000000E+00
  -1.580000      0.0000000E+00
  -1.570000      0.0000000E+00
  -1.560000      0.0000000E+00
  -1.550000      0.0000000E+00
  -1.540000      0.0000000E+00
  -1.530000      0.0000000E+00
  -1.520000      0.0000000E+00
  -1.510000      0.0000000E+00
  -1.500000      0.0000000E+00
  -1.490000      0.0000000E+00
  -1.480000      0.0000000E+00
  -1.470000      0.0000000E+00
  -1.460000      0.0000000E+00
  -1.450000      0.0000000E+00
  -1.440000      0.0000000E+00
  -1.430000      0.0000000E+00
  -1.420000      0.0000000E+00
  -1.410000      0.0000000E+00
  -1.400000      0.0000000E+00
  -1.390000      0.0000000E+00
  -1.380000      0.0000000E+00
  -1.370000      0.0000000E+00
  -1.360000      0.0000000E+00
  -1.350000      0.0000000E+00
  -1.340000      0.0000000E+00
  -1.330000      0.0000000E+00
  -1.320000      0.0000000E+00
  -1.310000      0.0000000E+00
  -1.300000      0.0000000E+00
  -1.290000      0.0000000E+00
  -1.280000      0.0000000E+00
  -1.270000      0.0000000E+00
  -1.260000      0.0000000E+00
  -1.250000      0.0000000E+00
  -1.240000      0.0000000E+00
  -1.230000      0.0000000E+00
  -1.220000      0.0000000E+00
  -1.210000      0.0000000E+00
  -1.200000      0.0000000E+00
  -1.190000      0.0000000E+00
  -1.180000      0.0000000E+00
  -1.170000      0.0000000E+00
  -1.160000      0.0000000E+00
  -1.150000      0.0000000E+00
  -1.140000      0.0000000E+00
  -1.130000      0.0000000E+00
  -1.120000      0.0000000E+00
  -1.110000      0.0000000E+00
  -1.100000      0.0000000E+00
  -1.090000      0.0000000E+00
  -1.080000      0.0000000E+00
  -1.070000      0.0000000E+00
  -1.060000      0.0000000E+00
  -1.050000      0.0000000E+00
  -1.040000      0.0000000E+00
  -1.030000      0.0000000E+00
  -1.020000      0.0000000E+00
  -1.010000      0.0000000E+00
  -1.000000      0.0000000E+00
 -0.9900000      0.0000000E+00
 -0.9800000      0.0000000E+00
 -0.9700000      0.0000000E+00
 -0.9600000      0.0000000E+00
 -0.9500000      0.0000000E+00
 -0.9400000      0.0000000E+00
 -0.9300000      0.0000000E+00
 -0.9200000      0.0000000E+00
 -0.9100000      0.0000000E+00
 -0.9000000      0.0000000E+00
 -0.8900000      0.0000000E+00
 -0.8800000      0.0000000E+00
 -0.8700000      0.0000000E+00
 -0.8600000      0.0000000E+00
 -0.8500000      0.0000000E+00
 -0.8400000      0.0000000E+00
 -0.8300000      0.0000000E+00
 -0.8200000      0.0000000E+00
 -0.8100000      0.0000000E+00
 -0.8000000      0.0000000E+00
 -0.7900000      0.0000000E+00
 -0.7800000      0.0000000E+00
 -0.7700000      0.0000000E+00
 -0.7600000      0.0000000E+00
 -0.7500000      0.0000000E+00
 -0.7400000      0.0000000E+00
 -0.7300000      0.0000000E+00
 -0.7200000      0.0000000E+00
 -0.7100000      0.0000000E+00
 -0.7000000      0.0000000E+00
 -0.6900000      0.0000000E+00
 -0.6800000      0.0000000E+00
 -0.6700000      0.0000000E+00
 -0.6600000      0.0000000E+00
 -0.6500000      0.0000000E+00
 -0.6400000      0.0000000E+00
 -0.6300000      0.0000000E+00
 -0.6200000      0.0000000E+00
 -0.6100000      0.0000000E+00
 -0.6000000      0.0000000E+00
 -0.5900000      0.0000000E+00
 -0.5800000      0.0000000E+00
 -0.5700000      0.0000000E+00
 -0.5600000      0.0000000E+00
 -0.5500000      0.0000000E+00
 -0.5400000      0.0000000E+00
 -0.5300000      0.0000000E+00
 -0.5200000      0.0000000E+00
 -0.5100000      0.0000000E+00
 -0.5000000      0.0000000E+00
 -0.4900000      0.0000000E+00
 -0.4800000      0.0000000E+00
 -0.4700000      0.0000000E+00
 -0.4600000      0.0000000E+00
 -0.4500000      0.0000000E+00
 -0.4400000      0.0000000E+00
 -0.4300000      0.0000000E+00
 -0.4200000      0.0000000E+00
 -0.4100000      0.0000000E+00
 -0.4000000      0.0000000E+00
 -0.3900000      0.0000000E+00
 -0.3800000      0.0000000E+00
 -0.3700000      0.0000000E+00
 -0.3600000      0.0000000E+00
 -0.3500000      0.0000000E+00
 -0.3400000      0.0000000E+00
 -0.3300000      0.0000000E+00
 -0.3200000      0.0000000E+00
 -0.3100000      0.0000000E+00
 -0.3000000      0.0000000E+00
 -0.2900000      0.0000000E+00
 -0.2800000      0.0000000E+00
 -0.2700000      0.0000000E+00
 -0.2600000      0.0000000E+00
 -0.2500000      0.0000000E+00
 -0.2400000      0.0000000E+00
 -0.2300000      0.0000000E+00
 -0.2200000      0.0000000E+00
 -0.2100000      0.0000000E+00
 -0.2000000      0.0000000E+00
 -0.1900000      0.0000000E+00
 -0.1800000      0.0000000E+00
 -0.1700000      0.0000000E+00
 -0.1600000      0.0000000E+00
 -0.1500000      0.0000000E+00
 -0.1400000      0.0000000E+00
 -0.1300000      0.0000000E+00
 -0.1200000      0.0000000E+00
 -0.1100000      0.0000000E+00
 -0.1000000      0.0000000E+00
 -9.0000004E-02  0.0000000E+00
 -7.9999998E-02  0.0000000E+00
 -7.0000000E-02  0.0000000E+00
 -5.9999999E-02  0.0000000E+00
 -5.0000001E-02  0.0000000E+00
 -3.9999999E-02  0.0000000E+00
 -2.9999999E-02  0.0000000E+00
 -2.0000000E-02  0.0000000E+00
 -9.9999998E-03  0.0000000E+00
 -3.4694470E-17  0.0000000E+00
  9.9999998E-03  0.0000000E+00
  2.0000000E-02  0.0000000E+00
  2.9999999E-02  0.0000000E+00
  3.9999999E-02  0.0000000E+00
  5.0000001E-02  0.0000000E+00
  5.9999999E-02  0.0000000E+00
  7.0000000E-02  0.0000000E+00
  7.9999998E-02  0.0000000E+00
  9.0000004E-02  0.0000000E+00
  0.1000000      0.0000000E+00
  0.1100000      0.0000000E+00
  0.1200000      0.0000000E+00
  0.1300000      0.0000000E+00
  0.1400000      0.0000000E+00
  0.1500000      0.0000000E+00
  0.1600000      0.0000000E+00
  0.1700000      0.0000000E+00
  0.1800000      0.0000000E+00
  0.1900000      0.0000000E+00
  0.2000000      0.0000000E+00
  0.2100000      0.0000000E+00
  0.2200000      0.0000000E+00
  0.2300000      0.0000000E+00
  0.2400000      0.0000000E+00
  0.2500000      0.0000000E+00
  0.2600000      0.0000000E+00
  0.2700000      0.0000000E+00
  0.2800000      0.0000000E+00
  0.2900000      0.0000000E+00
  0.3000000      0.0000000E+00
  0.3100000      0.0000000E+00
  0.3200000      0.0000000E+00
  0.3300000      0.0000000E+00
  0.3400000      0.0000000E+00
  0.3500000      0.0000000E+00
  0.3600000      0.0000000E+00
  0.3700000      0.0000000E+00
  0.3800000      0.0000000E+00
  0.3900000      0.0000000E+00
  0.4000000      0.0000000E+00
  0.4100000      0.0000000E+00
  0.4200000      0.0000000E+00
  0.4300000      0.0000000E+00
  0.4400000      0.0000000E+00
  0.4500000      0.0000000E+00
  0.4600000      0.0000000E+00
  0.4700000      0.0000000E+00
  0.4800000      0.0000000E+00
  0.4900000      0.0000000E+00
  0.5000000      0.0000000E+00
  0.5100000      0.0000000E+00
  0.5200000      0.0000000E+00
  0.5300000      0.0000000E+00
  0.5400000      0.0000000E+00
  0.5500000      0.0000000E+00
  0.5600000      0.0000000E+00
  0.5700000      0.0000000E+00
  0.5800000      0.0000000E+00
  0.5900000      0.0000000E+00
  0.6000000      0.0000000E+00
  0.6100000      0.0000000E+00
  0.6200000      0.0000000E+00
  0.6300000      0.0000000E+00
  0.6400000      0.0000000E+00
  0.6500000      0.0000000E+00
  0.6600000      0.0000000E+00
  0.6700000      0.0000000E+00
  0.6800000      0.0000000E+00
  0.6900000      0.0000000E+00
  0.7000000      0.0000000E+00
  0.7100000      0.0000000E+00
  0.7200000      0.0000000E+00
  0.7300000      0.0000000E+00
  0.7400000      0.0000000E+00
  0.7500000      0.0000000E+00
  0.7600000      0.0000000E+00
  0.7700000      0.0000000E+00
  0.7800000      0.0000000E+00
  0.7900000      0.0000000E+00
  0.8000000      0.0000000E+00
  0.8100000      0.0000000E+00
  0.8200000      0.0000000E+00
  0.8300000      0.0000000E+00
  0.8400000      0.0000000E+00
  0.8500000      0.0000000E+00
  0.8600000      0.0000000E+00
  0.8700000      0.0000000E+00
  0.8800000      0.0000000E+00
  0.8900000      0.0000000E+00
  0.9000000      0.0000000E+00
  0.9100000      0.0000000E+00
  0.9200000      0.0000000E+00
  0.9300000      0.0000000E+00
  0.9400000      0.0000000E+00
  0.9500000      0.0000000E+00
  0.9600000      0.0000000E+00
  0.9700000      0.0000000E+00
  0.9800000      0.0000000E+00
  0.9900000      0.0000000E+00
   1.000000      0.0000000E+00
   1.010000      0.0000000E+00
   1.020000      0.0000000E+00
   1.030000      0.0000000E+00
   1.040000      0.0000000E+00
   1.050000      0.0000000E+00
   1.060000      0.0000000E+00
   1.070000      0.0000000E+00
   1.080000      0.0000000E+00
   1.090000      0.0000000E+00
   1.100000      0.0000000E+00
   1.110000      0.0000000E+00
   1.120000      0.0000000E+00
   1.130000      0.0000000E+00
   1.140000      0.0000000E+00
   1.150000      0.0000000E+00
   1.160000      0.0000000E+00
   1.170000      0.0000000E+00
   1.180000      0.0000000E+00
   1.190000      0.0000000E+00
   1.200000      0.0000000E+00
   1.210000      0.0000000E+00
   1.220000      0.0000000E+00
   1.230000      0.0000000E+00
   1.240000      0.0000000E+00
   1.250000      0.0000000E+00
   1.260000      0.0000000E+00
   1.270000      0.0000000E+00
   1.280000      0.0000000E+00
   1.290000      0.0000000E+00
   1.300000      0.0000000E+00
   1.310000      0.0000000E+00
   1.320000      0.0000000E+00
   1.330000      0.0000000E+00
   1.340000      0.0000000E+00
   1.350000      0.0000000E+00
   1.360000      0.0000000E+00
   1.370000      0.0000000E+00
   1.380000      0.0000000E+00
   1.390000      0.0000000E+00
   1.400000      0.0000000E+00
   1.410000      0.0000000E+00
   1.420000      0.0000000E+00
   1.430000      0.0000000E+00
   1.440000      0.0000000E+00
   1.450000      0.0000000E+00
   1.460000      0.0000000E+00
   1.470000      0.0000000E+00
   1.480000      0.0000000E+00
   1.490000      0.0000000E+00
   1.500000      0.0000000E+00
   1.510000      0.0000000E+00
   1.520000      0.0000000E+00
   1.530000      0.0000000E+00
   1.540000      0.0000000E+00
   1.550000      0.0000000E+00
   1.560000      0.0000000E+00
   1.570000      0.0000000E+00
   1.580000      0.0000000E+00
   1.590000      0.0000000E+00
   1.600000      0.0000000E+00
   1.610000      0.0000000E+00
   1.620000      0.0000000E+00
   1.630000      0.0000000E+00
   1.640000      0.0000000E+00
   1.650000      0.0000000E+00
   1.660000      0.0000000E+00
   1.670000      0.0000000E+00
   1.680000      0.0000000E+00
   1.690000      0.0000000E+00
   1.700000      0.0000000E+00
   1.710000      0.0000000E+00
   1.720000      0.0000000E+00
   1.730000      0.0000000E+00
   1.740000      0.0000000E+00
   1.750000      0.0000000E+00
   1.760000      0.0000000E+00
   1.770000      0.0000000E+00
   1.780000      0.0000000E+00
   1.790000      0.0000000E+00
   1.800000      0.0000000E+00
   1.810000      0.0000000E+00
   1.820000      0.0000000E+00
   1.830000      0.0000000E+00
   1.840000      0.0000000E+00
   1.850000      0.0000000E+00
   1.860000      0.0000000E+00
   1.870000      0.0000000E+00
   1.880000      0.0000000E+00
   1.890000      0.0000000E+00
   1.900000      0.0000000E+00
   1.910000      0.0000000E+00
   1.920000      0.0000000E+00
   1.930000      0.0000000E+00
   1.940000      0.0000000E+00
   1.950000      0.0000000E+00
   1.960000      0.0000000E+00
   1.970000      0.0000000E+00
   1.980000      0.0000000E+00
   1.990000      0.0000000E+00
   2.000000      0.0000000E+00
   2.010000      0.0000000E+00
   2.020000      0.0000000E+00
   2.030000      0.0000000E+00
   2.040000      0.0000000E+00
   2.050000      0.0000000E+00
   2.060000      0.0000000E+00
   2.070000      0.0000000E+00
   2.080000      0.0000000E+00
   2.090000      0.0000000E+00
   2.100000      0.0000000E+00
   2.110000      0.0000000E+00
   2.120000      0.0000000E+00
   2.130000      0.0000000E+00
   2.140000      0.0000000E+00
   2.150000      0.0000000E+00
   2.160000      0.0000000E+00
   2.170000      0.0000000E+00
   2.180000      0.0000000E+00
   2.190000      0.0000000E+00
   2.200000      0.0000000E+00
   2.210000      0.0000000E+00
   2.220000      0.0000000E+00
   2.230000     -1.3082017E-38
   2.240000     -1.4736504E-38
   2.250000     -1.6228667E-38
   2.260000     -1.7483506E-38
   2.270000     -1.8404748E-38
   2.280000     -1.6710117E-38
   2.290000     -1.1771709E-38
   2.300000      0.0000000E+00
   2.310000      0.0000000E+00
   2.320000      1.6590684E-38
   2.330000      3.0126297E-38
   2.340000      4.4966521E-38
   2.350000      6.0849794E-38
   2.360000      7.7877185E-38
   2.370000      9.5694403E-38
   2.380000      1.1302210E-37
   2.390000      1.3021757E-37
   2.400000      1.4836221E-37
   2.410000      1.6761445E-37
   2.420000      1.8781645E-37
   2.430000      2.0909987E-37
   2.440000      2.3114710E-37
   2.450000      2.5370923E-37
   2.460000      2.7764178E-37
   2.470000      3.0318617E-37
   2.480000      3.2810278E-37
   2.490000      3.5187434E-37
   2.500000      3.7472259E-37
   2.510000      3.9699785E-37
   2.520000      4.1742605E-37
   2.530000      4.3420809E-37
   2.540000      4.4693390E-37
   2.550000      4.5576024E-37
   2.560000      4.6082761E-37
   2.570000      4.6585246E-37
   2.580000      4.5308428E-37
   2.590000      4.5871606E-37
   2.600000      5.0261361E-37
   2.610000      5.4410007E-37
   2.620000      5.8593540E-37
   2.630000      6.9735589E-37
   2.640000      8.7586939E-37
   2.650000      1.0537611E-36
   2.660000      1.1027439E-36
   2.670000      1.0038143E-36
   2.680000      8.6471747E-37
   2.690000      6.8633020E-37
   2.700000      4.6115320E-37
   2.710000      1.3252150E-37
   2.720000     -2.7824528E-37
   2.730000     -6.9902539E-37
   2.740000     -1.0985015E-36
   2.750000     -1.4553011E-36
   2.760000     -1.7895614E-36
   2.770000     -2.1097636E-36
   2.780000     -2.4054186E-36
   2.790000     -2.6772827E-36
   2.800000     -2.8140245E-36
   2.810000     -2.8781781E-36
   2.820000     -2.9787103E-36
   2.830000     -3.1336291E-36
   2.840000     -3.3428117E-36
   2.850000     -3.5467213E-36
   2.860000     -3.8345915E-36
   2.870000     -4.2385540E-36
   2.880000     -4.7274442E-36
   2.890000     -5.3411761E-36
   2.900000     -6.0813896E-36
   2.910000     -6.9345952E-36
   2.920000     -7.9105532E-36
   2.930000     -8.8749264E-36
   2.940000     -9.7073707E-36
   2.950000     -1.0471471E-35
   2.960000     -1.1051258E-35
   2.970000     -1.1305018E-35
   2.980000     -1.1291806E-35
   2.990000     -1.1028976E-35
   3.000000     -1.0492436E-35
   3.010000     -9.6717966E-36
   3.020000     -8.5143903E-36
   3.030000     -7.0380679E-36
   3.040000     -5.3515518E-36
   3.050000     -3.4543258E-36
   3.060000     -1.3685709E-36
   3.070000      8.5079803E-37
   3.080000      3.2289547E-36
   3.090000      5.8075670E-36
   3.100000      8.5704673E-36
   3.110000      1.1512453E-35
   3.120000      1.4584928E-35
   3.130000      1.7753299E-35
   3.140000      2.1066401E-35
   3.150000      2.4532854E-35
   3.160000      2.8139957E-35
   3.170000      3.1878798E-35
   3.180000      3.5679181E-35
   3.190000      3.9411381E-35
   3.200000      4.3040700E-35
   3.210000      4.6672593E-35
   3.220000      5.0166948E-35
   3.230000      5.3444178E-35
   3.240000      5.6245195E-35
   3.250000      5.8649620E-35
   3.260000      6.1177117E-35
   3.270000      6.3962637E-35
   3.280000      6.6954970E-35
   3.290000      6.9409957E-35
   3.300000      7.1167034E-35
   3.310000      7.2196056E-35
   3.320000      7.2406710E-35
   3.330000      7.2275597E-35
   3.340000      7.1955545E-35
   3.350000      7.1219765E-35
   3.360000      6.9367397E-35
   3.370000      6.6098989E-35
   3.380000      6.1776785E-35
   3.390000      5.7107215E-35
   3.400000      5.2873965E-35
   3.410000      4.8575812E-35
   3.420000      4.3882252E-35
   3.430000      3.8641289E-35
   3.440000      3.2019051E-35
   3.450000      2.2547873E-35
   3.460000      9.8017668E-36
   3.470000     -4.8668279E-36
   3.480000     -2.0835370E-35
   3.490000     -3.7394694E-35
   3.500000     -5.4032981E-35
   3.510000     -7.1537096E-35
   3.520000     -9.0325015E-35
   3.530000     -1.0936592E-34
   3.540000     -1.2833349E-34
   3.550000     -1.4799174E-34
   3.560000     -1.6828547E-34
   3.570000     -1.8993206E-34
   3.580000     -2.1298706E-34
   3.590000     -2.3553160E-34
   3.600000     -2.5786303E-34
   3.610000     -2.7993117E-34
   3.620000     -3.0509563E-34
   3.630000     -3.3432317E-34
   3.640000     -3.6520369E-34
   3.650000     -3.9749746E-34
   3.660000     -4.3177400E-34
   3.670000     -4.6446096E-34
   3.680000     -4.9301454E-34
   3.690000     -5.1919859E-34
   3.700000     -5.4328272E-34
   3.710000     -5.6691999E-34
   3.720000     -5.8593173E-34
   3.730000     -5.9876147E-34
   3.740000     -6.0687600E-34
   3.750000     -6.1000507E-34
   3.760000     -6.1022873E-34
   3.770000     -6.0779670E-34
   3.780000     -6.0101864E-34
   3.790000     -5.8654638E-34
   3.800000     -5.6382628E-34
   3.810000     -5.3446041E-34
   3.820000     -4.9735947E-34
   3.830000     -4.5169330E-34
   3.840000     -3.9750893E-34
   3.850000     -3.3139613E-34
   3.860000     -2.5289103E-34
   3.870000     -1.6610251E-34
   3.880000     -7.1270022E-35
   3.890000      3.0176507E-35
   3.900000      1.3661082E-34
   3.910000      2.4833861E-34
   3.920000      3.6425349E-34
   3.930000      4.8266840E-34
   3.940000      6.0434291E-34
   3.950000      7.3244263E-34
   3.960000      8.6689017E-34
   3.970000      1.0045840E-33
   3.980000      1.1454494E-33
   3.990000      1.2940510E-33
   4.000000      1.4457528E-33
   4.010000      1.5999815E-33
   4.020000      1.7572917E-33
   4.030000      1.9172023E-33
   4.040000      2.0856264E-33
   4.050000      2.2554910E-33
   4.060000      2.4232265E-33
   4.070000      2.5904536E-33
   4.080000      2.7555669E-33
   4.090000      2.9177535E-33
   4.100000      3.0757284E-33
   4.110000      3.2291278E-33
   4.120000      3.3752667E-33
   4.130000      3.5103648E-33
   4.140000      3.6340952E-33
   4.150000      3.7476046E-33
   4.160000      3.8486243E-33
   4.170000      3.9327960E-33
   4.180000      3.9971727E-33
   4.190000      4.0356242E-33
   4.200000      4.0491358E-33
   4.210000      4.0410487E-33
   4.220000      4.0007649E-33
   4.230000      3.9239651E-33
   4.240000      3.8127225E-33
   4.250000      3.6654941E-33
   4.260000      3.4814844E-33
   4.270000      3.2584222E-33
   4.280000      2.9948911E-33
   4.290000      2.6859664E-33
   4.300000      2.3284976E-33
   4.310000      1.9245138E-33
   4.320000      1.4744665E-33
   4.330000      9.7525302E-34
   4.340000      4.2677176E-34
   4.350000     -1.6902779E-34
   4.360000     -8.1274781E-34
   4.370000     -1.5034451E-33
   4.380000     -2.2401692E-33
   4.390000     -3.0219241E-33
   4.400000     -3.8472112E-33
   4.410000     -4.7137386E-33
   4.420000     -5.6195687E-33
   4.430000     -6.5647267E-33
   4.440000     -7.5448965E-33
   4.450000     -8.5556226E-33
   4.460000     -9.5952878E-33
   4.470000     -1.0660622E-32
   4.480000     -1.1747876E-32
   4.490000     -1.2852395E-32
   4.500000     -1.3969747E-32
   4.510000     -1.5094887E-32
   4.520000     -1.6222333E-32
   4.530000     -1.7346057E-32
   4.540000     -1.8459162E-32
   4.550000     -1.9554277E-32
   4.560000     -2.0623775E-32
   4.570000     -2.1659177E-32
   4.580000     -2.2651465E-32
   4.590000     -2.3591352E-32
   4.600000     -2.4468742E-32
   4.610000     -2.5273422E-32
   4.620000     -2.5994450E-32
   4.630000     -2.6620310E-32
   4.640000     -2.7139690E-32
   4.650000     -2.7540795E-32
   4.660000     -2.7811623E-32
   4.670000     -2.7940449E-32
   4.680000     -2.7914608E-32
   4.690000     -2.7721381E-32
   4.700000     -2.7347512E-32
   4.710000     -2.6782675E-32
   4.720000     -2.6018336E-32
   4.730000     -2.5039361E-32
   4.740000     -2.3833326E-32
   4.750000     -2.2391123E-32
   4.760000     -2.0702207E-32
   4.770000     -1.8757625E-32
   4.780000     -1.6548796E-32
   4.790000     -1.4067912E-32
   4.800000     -1.1308194E-32
   4.810000     -8.2635585E-33
   4.820000     -4.9290047E-33
   4.830000     -1.3009551E-33
   4.840000      2.6230387E-33
   4.850000      6.8438978E-33
   4.860000      1.1361674E-32
   4.870000      1.6175007E-32
   4.880000      2.1280544E-32
   4.890000      2.6673548E-32
   4.900000      3.2347448E-32
   4.910000      3.8293739E-32
   4.920000      4.4501997E-32
   4.930000      5.0959708E-32
   4.940000      5.7652214E-32
   4.950000      6.4562417E-32
   4.960000      7.1671131E-32
   4.970000      7.8956592E-32
   4.980000      8.6394168E-32
   4.990000      9.3956823E-32
   5.000000      1.0161465E-31
   5.010000      1.0933525E-31
   5.020000      1.1708339E-31
   5.030000      1.2482081E-31
   5.040000      1.3250651E-31
   5.050000      1.4009667E-31
   5.060000      1.4754467E-31
   5.070000      1.5480107E-31
   5.080000      1.6181372E-31
   5.090000      1.6852775E-31
   5.100000      1.7488568E-31
   5.110000      1.8082752E-31
   5.120000      1.8629090E-31
   5.130000      1.9121118E-31
   5.140000      1.9552159E-31
   5.150000      1.9915340E-31
   5.160000      2.0203633E-31
   5.170000      2.0409855E-31
   5.180000      2.0526689E-31
   5.190000      2.0546727E-31
   5.200000      2.0462444E-31
   5.210000      2.0266360E-31
   5.220000      1.9950986E-31
   5.230000      1.9508772E-31
   5.240000      1.8932265E-31
   5.250000      1.8214145E-31
   5.260000      1.7347151E-31
   5.270000      1.6324188E-31
   5.280000      1.5138450E-31
   5.290000      1.3783359E-31
   5.300000      1.2252637E-31
   5.310000      1.0540359E-31
   5.320000      8.6410049E-32
   5.330000      6.5495130E-32
   5.340000      4.2613354E-32
   5.350000      1.7724878E-32
   5.360000     -9.2038019E-33
   5.370000     -3.8199285E-32
   5.380000     -6.9280651E-32
   5.390000     -1.0245879E-31
   5.400000     -1.3773580E-31
   5.410000     -1.7510434E-31
   5.420000     -2.1454700E-31
   5.430000     -2.5603562E-31
   5.440000     -2.9953056E-31
   5.450000     -3.4498018E-31
   5.460000     -3.9232011E-31
   5.470000     -4.4147261E-31
   5.480000     -4.9234584E-31
   5.490000     -5.4483265E-31
   5.500000     -5.9881224E-31
   5.510000     -6.5414808E-31
   5.520000     -7.1068541E-31
   5.530000     -7.6825350E-31
   5.540000     -8.2666405E-31
   5.550000     -8.8571111E-31
   5.560000     -9.4517015E-31
   5.570000     -1.0047983E-30
   5.580000     -1.0643335E-30
   5.590000     -1.1234948E-30
   5.600000     -1.1819819E-30
   5.610000     -1.2394749E-30
   5.620000     -1.2956350E-30
   5.630000     -1.3501034E-30
   5.640000     -1.4025024E-30
   5.650000     -1.4524353E-30
   5.660000     -1.4994866E-30
   5.670000     -1.5432229E-30
   5.680000     -1.5831925E-30
   5.690000     -1.6189266E-30
   5.700000     -1.6499402E-30
   5.710000     -1.6757326E-30
   5.720000     -1.6957883E-30
   5.730000     -1.7095784E-30
   5.740000     -1.7165618E-30
   5.750000     -1.7161855E-30
   5.760000     -1.7078882E-30
   5.770000     -1.6911000E-30
   5.780000     -1.6652455E-30
   5.790000     -1.6297454E-30
   5.800000     -1.5840181E-30
   5.810000     -1.5274827E-30
   5.820000     -1.4595614E-30
   5.830000     -1.3796819E-30
   5.840000     -1.2872803E-30
   5.850000     -1.1818045E-30
   5.860000     -1.0627169E-30
   5.870000     -9.2949780E-31
   5.880000     -7.8164958E-31
   5.890000     -6.1869949E-31
   5.900000     -4.4020458E-31
   5.910000     -2.4575487E-31
   5.920000     -3.4978101E-32
   5.930000      1.9245549E-31
   5.940000      4.3682959E-31
   5.950000      6.9837619E-31
   5.960000      9.7727102E-31
   5.970000      1.2736286E-30
   5.980000      1.5874972E-30
   5.990000      1.9188537E-30
   6.000000      2.2675978E-30
   6.010000      2.6335473E-30
   6.020000      3.0164327E-30
   6.030000      3.4158910E-30
   6.040000      3.8314616E-30
   6.050000      4.2625795E-30
   6.060000      4.7085703E-30
   6.070000      5.1686468E-30
   6.080000      5.6419001E-30
   6.090000      6.1272968E-30
   6.100000      6.6236741E-30
   6.110000      7.1297332E-30
   6.120000      7.6440363E-30
   6.130000      8.1650011E-30
   6.140000      8.6908958E-30
   6.150000      9.2198382E-30
   6.160000      9.7497871E-30
   6.170000      1.0278544E-29
   6.180000      1.0803746E-29
   6.190000      1.1322866E-29
   6.200000      1.1833211E-29
   6.210000      1.2331918E-29
   6.220000      1.2815958E-29
   6.230000      1.3282129E-29
   6.240000      1.3727063E-29
   6.250000      1.4147225E-29
   6.260000      1.4538916E-29
   6.270000      1.4898270E-29
   6.280000      1.5221270E-29
   6.290000      1.5503741E-29
   6.300000      1.5741360E-29
   6.310000      1.5929669E-29
   6.320000      1.6064072E-29
   6.330000      1.6139856E-29
   6.340000      1.6152191E-29
   6.350000      1.6096151E-29
   6.360000      1.5966716E-29
   6.370000      1.5758801E-29
   6.380000      1.5467262E-29
   6.390000      1.5086911E-29
   6.400000      1.4612545E-29
   6.410000      1.4038958E-29
   6.420000      1.3360966E-29
   6.430000      1.2573428E-29
   6.440000      1.1671276E-29
   6.450000      1.0649535E-29
   6.460000      9.5033546E-30
   6.470000      8.2280384E-30
   6.480000      6.8190762E-30
   6.490000      5.2721723E-30
   6.500000      3.5832859E-30
   6.510000      1.7486637E-30
   6.520000     -2.3512179E-31
   6.530000     -2.3711359E-30
   6.540000     -4.6620381E-30
   6.550000     -7.1100391E-30
   6.560000     -9.7168628E-30
   6.570000     -1.2483700E-29
   6.580000     -1.5411161E-29
   6.590000     -1.8499230E-29
   6.600000     -2.1747219E-29
   6.610000     -2.5153721E-29
   6.620000     -2.8716560E-29
   6.630000     -3.2432745E-29
   6.640000     -3.6298405E-29
   6.650000     -4.0308769E-29
   6.660000     -4.4458095E-29
   6.670000     -4.8739623E-29
   6.680000     -5.3145537E-29
   6.690000     -5.7666911E-29
   6.700000     -6.2293668E-29
   6.710000     -6.7014520E-29
   6.720000     -7.1816953E-29
   6.730000     -7.6687166E-29
   6.740000     -8.1610042E-29
   6.750000     -8.6569107E-29
   6.760000     -9.1546498E-29
   6.770000     -9.6522944E-29
   6.780000     -1.0147773E-28
   6.790000     -1.0638868E-28
   6.800000     -1.1123214E-28
   6.810000     -1.1598299E-28
   6.820000     -1.2061459E-28
   6.830000     -1.2509880E-28
   6.840000     -1.2940605E-28
   6.850000     -1.3350524E-28
   6.860000     -1.3736384E-28
   6.870000     -1.4094787E-28
   6.880000     -1.4422202E-28
   6.890000     -1.4714959E-28
   6.900000     -1.4969258E-28
   6.910000     -1.5181178E-28
   6.920000     -1.5346682E-28
   6.930000     -1.5461626E-28
   6.940000     -1.5521765E-28
   6.950000     -1.5522769E-28
   6.960000     -1.5460232E-28
   6.970000     -1.5329683E-28
   6.980000     -1.5126602E-28
   6.990000     -1.4846434E-28
   7.000000     -1.4484607E-28
   7.010000     -1.4036546E-28
   7.020000     -1.3497696E-28
   7.030000     -1.2863538E-28
   7.040000     -1.2129615E-28
   7.050000     -1.1291552E-28
   7.060000     -1.0345079E-28