  -2.600000      0.0000000E+00
  -2.590000      0.0000000E+00
  -2.580000      0.0000000E+00
  -2.570000      0.0000000E+00
  -2.560000      0.0000000E+00
  -2.550000      0.0000000E+00
  -2.540000      0.0000000E+00
  -2.530000      0.0000000E+00
  -2.520000      0.0000000E+00
  -2.510000      0.0000000E+00
  -2.500000      0.0000000E+00
  -2.490000      0.0000000E+00
  -2.480000      0.0000000E+00
  -2.470000      0.0000000E+00
  -2.460000      0.0000000E+00
  -2.450000      0.0000000E+00
  -2.440000      0.0000000E+00
  -2.430000      0.0000000E+00
  -2.420000      0.0000000E+00
  -2.410000      0.0000000E+00
  -2.400000      0.0000000E+00
  -2.390000      0.0000000E+00
  -2.380000      0.0000000E+00
  -2.370000      0.0000000E+00
  -2.360000      0.0000000E+00
  -2.350000      0.0000000E+00
  -2.340000      0.0000000E+00
  -2.330000      0.0000000E+00
  -2.320000      0.0000000E+00
  -2.310000      0.0000000E+00
  -2.300000      0.0000000E+00
  -2.290000      0.0000000E+00
  -2.280000      0.0000000E+00
  -2.270000      0.0000000E+00
  -2.260000      0.0000000E+00
  -2.250000      0.0000000E+00
  -2.240000      0.0000000E+00
  -2.230000      0.0000000E+00
  -2.220000      0.0000000E+00
  -2.210000      0.0000000E+00
  -2.200000      0.0000000E+00
  -2.190000      0.0000000E+00
  -2.180000      0.0000000E+00
  -2.170000      0.0000000E+00
  -2.160000      0.0000000E+00
  -2.150000      0.0000000E+00
  -2.140000      0.0000000E+00
  -2.130000      0.0000000E+00
  -2.120000      0.0000000E+00
  -2.110000      0.0000000E+00
  -2.100000      0.0000000E+00
  -2.090000      0.0000000E+00
  -2.080000      0.0000000E+00
  -2.070000      0.0000000E+00
  -2.060000      0.0000000E+00
  -2.050000      0.0000000E+00
  -2.040000      0.0000000E+00
  -2.030000      0.0000000E+00
  -2.020000      0.0000000E+00
  -2.010000      0.0000000E+00
  -2.000000      0.0000000E+00
  -1.990000      0.0000000E+00
  -1.980000      0.0000000E+00
  -1.970000      0.0000000E+00
  -1.960000      0.0000000E+00
  -1.950000      0.0000000E+00
  -1.940000      0.0000000E+00
  -1.930000      0.0000000E+00
  -1.920000      0.0000000E+00
  -1.910000      0.0000000E+00
  -1.900000      0.0000000E+00
  -1.890000      0.0000000E+00
  -1.880000      0.0000000E+00
  -1.870000      0.0000000E+00
  -1.860000      0.0000000E+00
  -1.850000      0.0000000E+00
  -1.840000      0.0000000E+00
  -1.830000      0.0000000E+00
  -1.820000      0.0000000E+00
  -1.810000      0.0000000E+00
  -1.800000      0.0000000E+00
  -1.790000      0.0000000E+00
  -1.780000      0.0000000E+00
  -1.770000      0.0000000E+00
  -1.760000      0.0000000E+00
  -1.750000      0.0000000E+00
  -1.740000      0.0000000E+00
  -1.730000      0.0000000E+00
  -1.720000      0.0000000E+00
  -1.710000      0.0000000E+00
  -1.700000      0.0000000E+00
  -1.690000      0.0000000E+00
  -1.680000      0.0000000E+00
  -1.670000      0.0000000E+00
  -1.660000      0.0000000E+00
  -1.650000      0.0000000E+00
  -1.640000      0.0000000E+00
  -1.630000      0.0000000E+00
  -1.620000      0.0000000E+00
  -1.610000      0.0000000E+00
  -1.600000      0.0000000E+00
  -1.590000      0.0000000E+00
  -1.580000      0.0000000E+00
  -1.570000      0.0000000E+00
  -1.560000      0.0000000E+00
  -1.550000      0.0000000E+00
  -1.540000      0.0000000E+00
  -1.530000      0.0000000E+00
  -1.520000      0.0000000E+00
  -1.510000      0.0000000E+00
  -1.500000      0.0000000E+00
  -1.490000      0.0000000E+00
  -1.480000      0.0000000E+00
  -1.470000      0.0000000E+00
  -1.460000      0.0000000E+00
  -1.450000      0.0000000E+00
  -1.440000      0.0000000E+00
  -1.430000      0.0000000E+00
  -1.420000      0.0000000E+00
  -1.410000      0.0000000E+00
  -1.400000      0.0000000E+00
  -1.390000      0.0000000E+00
  -1.380000      0.0000000E+00
  -1.370000      0.0000000E+00
  -1.360000      0.0000000E+00
  -1.350000      0.0000000E+00
  -1.340000      0.0000000E+00
  -1.330000      0.0000000E+00
  -1.320000      0.0000000E+00
  -1.310000      0.0000000E+00
  -1.300000      0.0000000E+00
  -1.290000      0.0000000E+00
  -1.280000      0.0000000E+00
  -1.270000      0.0000000E+00
  -1.260000      0.0000000E+00
  -1.250000      0.0000000E+00
  -1.240000      0.0000000E+00
  -1.230000      0.0000000E+00
  -1.220000      0.0000000E+00
  -1.210000      0.0000000E+00
  -1.200000      0.0000000E+00
  -1.190000      0.0000000E+00
  -1.180000      0.0000000E+00
  -1.170000      0.0000000E+00
  -1.160000      0.0000000E+00
  -1.150000      0.0000000E+00
  -1.140000      0.0000000E+00
  -1.130000      0.0000000E+00
  -1.120000      0.0000000E+00
  -1.110000      0.0000000E+00
  -1.100000      0.0000000E+00
  -1.090000      0.0000000E+00
  -1.080000      0.0000000E+00
  -1.070000      0.0000000E+00
  -1.060000      0.0000000E+00
  -1.050000      0.0000000E+00
  -1.040000      0.0000000E+00
  -1.030000      0.0000000E+00
  -1.020000      0.0000000E+00
  -1.010000      0.0000000E+00
  -1.000000      0.0000000E+00
 -0.9900000      0.0000000E+00
 -0.9800000      0.0000000E+00
 -0.9700000      0.0000000E+00
 -0.9600000      0.0000000E+00
 -0.9500000      0.0000000E+00
 -0.9400000      0.0000000E+00
 -0.9300000      0.0000000E+00
 -0.9200000      0.0000000E+00
 -0.9100000      0.0000000E+00
 -0.9000000      0.0000000E+00
 -0.8900000      0.0000000E+00
 -0.8800000      0.0000000E+00
 -0.8700000      0.0000000E+00
 -0.8600000      0.0000000E+00
 -0.8500000      0.0000000E+00
 -0.8400000      0.0000000E+00
 -0.8300000      0.0000000E+00
 -0.8200000      0.0000000E+00
 -0.8100000      0.0000000E+00
 -0.8000000      0.0000000E+00
 -0.7900000      0.0000000E+00
 -0.7800000      0.0000000E+00
 -0.7700000      0.0000000E+00
 -0.7600000      0.0000000E+00
 -0.7500000      0.0000000E+00
 -0.7400000      0.0000000E+00
 -0.7300000      0.0000000E+00
 -0.7200000      0.0000000E+00
 -0.7100000      0.0000000E+00
 -0.7000000      0.0000000E+00
 -0.6900000      0.0000000E+00
 -0.6800000      0.0000000E+00
 -0.6700000      0.0000000E+00
 -0.6600000      0.0000000E+00
 -0.6500000      0.0000000E+00
 -0.6400000      0.0000000E+00
 -0.6300000      0.0000000E+00
 -0.6200000      0.0000000E+00
 -0.6100000      0.0000000E+00
 -0.6000000      0.0000000E+00
 -0.5900000      0.0000000E+00
 -0.5800000      0.0000000E+00
 -0.5700000      0.0000000E+00
 -0.5600000      0.0000000E+00
 -0.5500000      0.0000000E+00
 -0.5400000      0.0000000E+00
 -0.5300000      0.0000000E+00
 -0.5200000      0.0000000E+00
 -0.5100000      0.0000000E+00
 -0.5000000      0.0000000E+00
 -0.4900000      0.0000000E+00
 -0.4800000      0.0000000E+00
 -0.4700000      0.0000000E+00
 -0.4600000      0.0000000E+00
 -0.4500000      0.0000000E+00
 -0.4400000      0.0000000E+00
 -0.4300000      0.0000000E+00
 -0.4200000      0.0000000E+00
 -0.4100000      0.0000000E+00
 -0.4000000      0.0000000E+00
 -0.3900000      0.0000000E+00
 -0.3800000      0.0000000E+00
 -0.3700000      0.0000000E+00
 -0.3600000      0.0000000E+00
 -0.3500000      0.0000000E+00
 -0.3400000      0.0000000E+00
 -0.3300000      0.0000000E+00
 -0.3200000      0.0000000E+00
 -0.3100000      0.0000000E+00
 -0.3000000      0.0000000E+00
 -0.2900000      0.0000000E+00
 -0.2800000      0.0000000E+00
 -0.2700000      0.0000000E+00
 -0.2600000      0.0000000E+00
 -0.2500000      0.0000000E+00
 -0.2400000      0.0000000E+00
 -0.2300000      0.0000000E+00
 -0.2200000     -2.4002418E-38
 -0.2100000     -3.1502821E-38
 -0.2000000     -2.9134486E-38
 -0.1900000     -1.8686288E-38
 -0.1800000      0.0000000E+00
 -0.1700000      1.4010239E-38
 -0.1600000      3.2211289E-38
 -0.1500000      5.4341598E-38
 -0.1400000      8.2196866E-38
 -0.1300000      1.0912481E-37
 -0.1200000      1.2986889E-37
 -0.1100000      1.4258793E-37
 -0.1000000      1.4345702E-37
 -9.0000004E-02  1.3008832E-37
 -7.9999998E-02  1.0064715E-37
 -7.0000000E-02  5.4535694E-38
 -5.9999999E-02  0.0000000E+00
 -5.0000001E-02 -8.5925946E-38
 -3.9999999E-02 -1.7289479E-37
 -2.9999999E-02 -2.6158126E-37
 -2.0000000E-02 -3.4866108E-37
 -9.9999998E-03 -4.2672874E-37
 -3.4694470E-17 -4.5524214E-37
  9.9999998E-03 -4.1827356E-37
  2.0000000E-02 -3.9403836E-37
  2.9999999E-02 -4.0034138E-37
  3.9999999E-02 -4.1004616E-37
  5.0000001E-02 -3.8260358E-37
  5.9999999E-02 -3.2178230E-37
  7.0000000E-02 -2.8475903E-37
  7.9999998E-02 -2.9002540E-37
  9.0000004E-02 -4.8081245E-37
  0.1000000     -8.5585974E-37
  0.1100000     -1.1081415E-36
  0.1200000     -1.0443116E-36
  0.1300000     -6.9228332E-37
  0.1400000      2.5576222E-37
  0.1500000      1.6448189E-36
  0.1600000      2.9317426E-36
  0.1700000      4.1254682E-36
  0.1800000      5.2263028E-36
  0.1900000      6.3136731E-36
  0.2000000      7.4213778E-36
  0.2100000      8.3214188E-36
  0.2200000      8.3054746E-36
  0.2300000      7.1264740E-36
  0.2400000      4.7972051E-36
  0.2500000      1.2687537E-36
  0.2600000     -2.0560866E-36
  0.2700000     -4.9218420E-36
  0.2800000     -8.1293104E-36
  0.2900000     -1.1790612E-35
  0.3000000     -1.6125887E-35
  0.3100000     -2.2366087E-35
  0.3200000     -3.0589164E-35
  0.3300000     -4.0186065E-35
  0.3400000     -5.3978701E-35
  0.3500000     -7.0842981E-35
  0.3600000     -9.0060810E-35
  0.3700000     -1.1388777E-34
  0.3800000     -1.4065723E-34
  0.3900000     -1.7100209E-34
  0.4000000     -2.0449446E-34
  0.4100000     -2.4445817E-34
  0.4200000     -2.9206239E-34
  0.4300000     -3.4089912E-34
  0.4400000     -3.8236682E-34
  0.4500000     -4.2045491E-34
  0.4600000     -4.6513825E-34
  0.4700000     -5.0393654E-34
  0.4800000     -5.3495384E-34
  0.4900000     -5.6251445E-34
  0.5000000     -5.8177741E-34
  0.5100000     -6.0441734E-34
  0.5200000     -6.3987025E-34
  0.5300000     -6.8491501E-34
  0.5400000     -7.3857086E-34
  0.5500000     -7.9438641E-34
  0.5600000     -8.4691356E-34
  0.5700000     -8.9714528E-34
  0.5800000     -9.5052916E-34
  0.5900000     -9.9839997E-34
  0.6000000     -1.0236944E-33
  0.6100000     -1.0214210E-33
  0.6200000     -1.0024018E-33
  0.6300000     -9.7410333E-34
  0.6400000     -9.3151122E-34
  0.6500000     -8.7688343E-34
  0.6600000     -8.1240058E-34
  0.6700000     -7.3992796E-34
  0.6800000     -6.6045596E-34
  0.6900000     -5.7300611E-34
  0.7000000     -4.7800752E-34
  0.7100000     -3.7463193E-34
  0.7200000     -2.5841416E-34
  0.7300000     -1.2541603E-34
  0.7400000      2.5582482E-35
  0.7500000      2.0262579E-34
  0.7600000      4.1560953E-34
  0.7700000      6.6103140E-34
  0.7800000      9.3685035E-34
  0.7900000      1.2451532E-33
  0.8000000      1.5846353E-33
  0.8100000      1.9517179E-33
  0.8200000      2.3441152E-33
  0.8300000      2.7588621E-33
  0.8400000      3.1918925E-33
  0.8500000      3.6390175E-33
  0.8600000      4.0969413E-33
  0.8700000      4.5677069E-33
  0.8800000      5.0481884E-33
  0.8900000      5.5364924E-33
  0.9000000      6.0362395E-33
  0.9100000      6.5500727E-33
  0.9200000      7.0778499E-33
  0.9300000      7.6188733E-33
  0.9400000      8.1743179E-33
  0.9500000      8.7433828E-33
  0.9600000      9.3242188E-33
  0.9700000      9.9165930E-33
  0.9800000      1.0512985E-32
  0.9900000      1.1098041E-32
   1.000000      1.1678299E-32
   1.010000      1.2257874E-32
   1.020000      1.2826542E-32
   1.030000      1.3381612E-32
   1.040000      1.3921720E-32
   1.050000      1.4447726E-32
   1.060000      1.4961472E-32
   1.070000      1.5466029E-32
   1.080000      1.5965494E-32
   1.090000      1.6464667E-32
   1.100000      1.6968643E-32
   1.110000      1.7482632E-32
   1.120000      1.8011863E-32
   1.130000      1.8561376E-32
   1.140000      1.9136141E-32
   1.150000      1.9741143E-32
   1.160000      2.0381632E-32
   1.170000      2.1063473E-32
   1.180000      2.1793582E-32
   1.190000      2.2579758E-32
   1.200000      2.3431173E-32
   1.210000      2.4358754E-32
   1.220000      2.5374715E-32
   1.230000      2.6492675E-32
   1.240000      2.7726879E-32
   1.250000      2.9092166E-32
   1.260000      3.0603890E-32
   1.270000      3.2277009E-32
   1.280000      3.4125903E-32
   1.290000      3.6164090E-32
   1.300000      3.8404076E-32
   1.310000      4.0857368E-32
   1.320000      4.3534586E-32
   1.330000      4.6445745E-32
   1.340000      4.9600560E-32
   1.350000      5.3008841E-32
   1.360000      5.6680856E-32
   1.370000      6.0627649E-32
   1.380000      6.4861298E-32
   1.390000      6.9395062E-32
   1.400000      7.4243342E-32
   1.410000      7.9421547E-32
   1.420000      8.4945918E-32
   1.430000      9.0833111E-32
   1.440000      9.7099830E-32
   1.450000      1.0376246E-31
   1.460000      1.1083663E-31
   1.470000      1.1833677E-31
   1.480000      1.2627575E-31
   1.490000      1.3466476E-31
   1.500000      1.4351285E-31
   1.510000      1.5282669E-31
   1.520000      1.6261040E-31
   1.530000      1.7286524E-31
   1.540000      1.8358928E-31
   1.550000      1.9477713E-31
   1.560000      2.0641946E-31
   1.570000      2.1850261E-31
   1.580000      2.3100808E-31
   1.590000      2.4391228E-31
   1.600000      2.5718587E-31
   1.610000      2.7079356E-31
   1.620000      2.8469375E-31
   1.630000      2.9883855E-31
   1.640000      3.1317344E-31
   1.650000      3.2763764E-31
   1.660000      3.4216388E-31
   1.670000      3.5667872E-31
   1.680000      3.7110249E-31
   1.690000      3.8534919E-31
   1.700000      3.9932667E-31
   1.710000      4.1293584E-31
   1.720000      4.2607048E-31
   1.730000      4.3861616E-31
   1.740000      4.5044962E-31
   1.750000      4.6143749E-31
   1.760000      4.7143478E-31
   1.770000      4.8028386E-31
   1.780000      4.8781281E-31
   1.790000      4.9383378E-31
   1.800000      4.9814202E-31
   1.810000      5.0051463E-31
   1.820000      5.0070981E-31
   1.830000      4.9846608E-31
   1.840000      4.9350210E-31
   1.850000      4.8551669E-31
   1.860000      4.7418906E-31
   1.870000      4.5917941E-31
   1.880000      4.4013052E-31
   1.890000      4.1666841E-31
   1.900000      3.8840407E-31
   1.910000      3.5493589E-31
   1.920000      3.1585117E-31
   1.930000      2.7072820E-31
   1.940000      2.1913881E-31
   1.950000      1.6065051E-31
   1.960000      9.4828628E-32
   1.970000      2.1238945E-32
   1.980000     -6.0550455E-32
   1.990000     -1.5096783E-31
   2.000000     -2.5043566E-31
   2.010000     -3.5936945E-31
   2.020000     -4.7817601E-31
   2.030000     -6.0725267E-31
   2.040000     -7.4698702E-31
   2.050000     -8.9775569E-31
   2.060000     -1.0599244E-30
   2.070000     -1.2338478E-30
   2.080000     -1.4198669E-30
   2.090000     -1.6183098E-30
   2.100000     -1.8294892E-30
   2.110000     -2.0537009E-30
   2.120000     -2.2912226E-30
   2.130000     -2.5423093E-30
   2.140000     -2.8071920E-30
   2.150000     -3.0860708E-30
   2.160000     -3.3791118E-30
   2.170000     -3.6864424E-30
   2.180000     -4.0081461E-30
   2.190000     -4.3442559E-30
   2.200000     -4.6947510E-30
   2.210000     -5.0595534E-30
   2.220000     -5.4385207E-30
   2.230000     -5.8314465E-30
   2.240000     -6.2380570E-30
   2.250000     -6.6580120E-30
   2.260000     -7.0909039E-30
   2.270000     -7.5362639E-30
   2.280000     -7.9935632E-30
   2.290000     -8.4622225E-30
   2.300000     -8.9416165E-30
   2.310000     -9.4310871E-30
   2.320000     -9.9299473E-30
   2.330000     -1.0437497E-29
   2.340000     -1.0953036E-29
   2.350000     -1.1475878E-29
   2.360000     -1.2005362E-29
   2.370000     -1.2540864E-29
   2.380000     -1.3081817E-29
   2.390000     -1.3627721E-29
   2.400000     -1.4178146E-29
   2.410000     -1.4732761E-29
   2.420000     -1.5291330E-29
   2.430000     -1.5853729E-29
   2.440000     -1.6419945E-29
   2.450000     -1.6990101E-29
   2.460000     -1.7564457E-29
   2.470000     -1.8143420E-29
   2.480000     -1.8727540E-29
   2.490000     -1.9317538E-29
   2.500000     -1.9914310E-29
   2.510000     -2.0518933E-29
   2.520000     -2.1132676E-29
   2.530000     -2.1757026E-29
   2.540000     -2.2393692E-29
   2.550000     -2.3044638E-29
   2.560000     -2.3712092E-29
   2.570000     -2.4398556E-29
   2.580000     -2.5106844E-29
   2.590000     -2.5840082E-29
   2.600000     -2.6601751E-29
   2.610000     -2.7395685E-29
   2.620000     -2.8226104E-29
   2.630000     -2.9097609E-29
   2.640000     -3.0015206E-29
   2.650000     -3.0984286E-29
   2.660000     -3.2010614E-29
   2.670000     -3.3100314E-29
   2.680000     -3.4259844E-29
   2.690000     -3.5495969E-29
   2.700000     -3.6815725E-29
   2.710000     -3.8226357E-29
   2.720000     -3.9735242E-29
   2.730000     -4.1349863E-29
   2.740000     -4.3077723E-29
   2.750000     -4.4926222E-29
   2.760000     -4.6902608E-29
   2.770000     -4.9013900E-29
   2.780000     -5.1266750E-29
   2.790000     -5.3667326E-29
   2.800000     -5.6221235E-29
   2.810000     -5.8933402E-29
   2.820000     -6.1807961E-29
   2.830000     -6.4848156E-29
   2.840000     -6.8056213E-29
   2.850000     -7.1433205E-29
   2.860000     -7.4978884E-29
   2.870000     -7.8691548E-29
   2.880000     -8.2567921E-29
   2.890000     -8.6603093E-29
   2.900000     -9.0790239E-29
   2.910000     -9.5120470E-29
   2.920000     -9.9582693E-29
   2.930000     -1.0416349E-28
   2.940000     -1.0884683E-28
   2.950000     -1.1361391E-28
   2.960000     -1.1844285E-28
   2.970000     -1.2330857E-28
   2.980000     -1.2818258E-28
   2.990000     -1.3303270E-28
   3.000000     -1.3782286E-28
   3.010000     -1.4251289E-28
   3.020000     -1.4705832E-28
   3.030000     -1.5141014E-28
   3.040000     -1.5551464E-28
   3.050000     -1.5931332E-28
   3.060000     -1.6274263E-28
   3.070000     -1.6573388E-28
   3.080000     -1.6821332E-28
   3.090000     -1.7010194E-28
   3.100000     -1.7131549E-28
   3.110000     -1.7176458E-28
   3.120000     -1.7135474E-28
   3.130000     -1.6998651E-28
   3.140000     -1.6755553E-28
   3.150000     -1.6395313E-28
   3.160000     -1.5906627E-28
   3.170000     -1.5277780E-28
   3.180000     -1.4496694E-28
   3.190000     -1.3550980E-28
   3.200000     -1.2427966E-28
   3.210000     -1.1114752E-28
   3.220000     -9.5982613E-29
   3.230000     -7.8652830E-29
   3.240000     -5.9025829E-29
   3.250000     -3.6969438E-29
   3.260000     -1.2352335E-29
   3.270000      1.4954778E-29
   3.280000      4.5078695E-29
   3.290000      7.8142832E-29
   3.300000      1.1426580E-28
   3.310000      1.5356028E-28
   3.320000      1.9613165E-28
   3.330000      2.4207731E-28
   3.340000      2.9148483E-28
   3.350000      3.4443025E-28
   3.360000      4.0097772E-28
   3.370000      4.6117697E-28
   3.380000      5.2506166E-28
   3.390000      5.9264808E-28
   3.400000      6.6393320E-28
   3.410000      7.3889251E-28
   3.420000      8.1747839E-28
   3.430000      8.9961844E-28
   3.440000      9.8521389E-28
   3.450000      1.0741371E-27
   3.460000      1.1662294E-27
   3.470000      1.2613012E-27
   3.480000      1.3591284E-27
   3.490000      1.4594521E-27
   3.500000      1.5619769E-27
   3.510000      1.6663685E-27
   3.520000      1.7722527E-27
   3.530000      1.8792161E-27
   3.540000      1.9868030E-27
   3.550000      2.0945155E-27
   3.560000      2.2018146E-27
   3.570000      2.3081180E-27
   3.580000      2.4128006E-27
   3.590000      2.5151946E-27
   3.600000      2.6145901E-27
   3.610000      2.7102356E-27
   3.620000      2.8013402E-27
   3.630000      2.8870747E-27
   3.640000      2.9665709E-27
   3.650000      3.0389270E-27
   3.660000      3.1032082E-27
   3.670000      3.1584500E-27
   3.680000      3.2036620E-27
   3.690000      3.2378318E-27
   3.700000      3.2599299E-27
   3.710000      3.2689144E-27
   3.720000      3.2637367E-27
   3.730000      3.2433481E-27
   3.740000      3.2067067E-27
   3.750000      3.1527843E-27
   3.760000      3.0805764E-27
   3.770000      2.9891086E-27
   3.780000      2.8774495E-27
   3.790000      2.7447185E-27
   3.800000      2.5900969E-27
   3.810000      2.4128410E-27
   3.820000      2.2122938E-27
   3.830000      1.9878964E-27
   3.840000      1.7392028E-27
   3.850000      1.4658943E-27
   3.860000      1.1677935E-27
   3.870000      8.4487744E-28
   3.880000      4.9729755E-28
   3.890000      1.2539274E-28
   3.900000     -2.7029693E-28
   3.910000     -6.8900741E-28
   3.920000     -1.1297396E-27
   3.930000     -1.5912434E-27
   3.940000     -2.0719965E-27
   3.950000     -2.5701901E-27
   3.960000     -3.0837158E-27
   3.970000     -3.6101422E-27
   3.980000     -4.1467047E-27
   3.990000     -4.6902927E-27
   4.000000     -5.2374267E-27
   4.010000     -5.7842513E-27
   4.020000     -6.3265231E-27
   4.030000     -6.8595878E-27
   4.040000     -7.3783794E-27
   4.050000     -7.8774048E-27
   4.060000     -8.3507413E-27
   4.070000     -8.7920358E-27
   4.080000     -9.1944820E-27
   4.090000     -9.5508314E-27
   4.100000     -9.8533958E-27
   4.110000     -1.0094045E-26
   4.120000     -1.0264213E-26
   4.130000     -1.0354915E-26
   4.140000     -1.0356750E-26
   4.150000     -1.0259923E-26
   4.160000     -1.0054273E-26
   4.170000     -9.7292835E-27
   4.180000     -9.2741231E-27
   4.190000     -8.6776787E-27
   4.200000     -7.9285798E-27
   4.210000     -7.0152630E-27
   4.220000     -5.9260148E-27
   4.230000     -4.6490131E-27
   4.240000     -3.1724014E-27
   4.250000     -1.4843545E-27
   4.260000      4.2684751E-28
   4.270000      2.5727318E-27
   4.280000      4.9645636E-27
   4.290000      7.6132481E-27
   4.300000      1.0529228E-26
   4.310000      1.3722393E-26
   4.320000      1.7201942E-26
   4.330000      2.0976281E-26
   4.340000      2.5052903E-26
   4.350000      2.9438234E-26
   4.360000      3.4137506E-26
   4.370000      3.9154633E-26
   4.380000      4.4491995E-26
   4.390000      5.0150313E-26
   4.400000      5.6128476E-26
   4.410000      6.2423383E-26
   4.420000      6.9029754E-26
   4.430000      7.5939960E-26
   4.440000      8.3143819E-26
   4.450000      9.0628415E-26
   4.460000      9.8377833E-26
   4.470000      1.0637301E-25
   4.480000      1.1459160E-25
   4.490000      1.2300765E-25
   4.500000      1.3159150E-25
   4.510000      1.4030945E-25
   4.520000      1.4912369E-25
   4.530000      1.5799204E-25
   4.540000      1.6686780E-25
   4.550000      1.7569944E-25
   4.560000      1.8443058E-25
   4.570000      1.9299958E-25
   4.580000      2.0133958E-25
   4.590000      2.0937818E-25
   4.600000      2.1703745E-25
   4.610000      2.2423381E-25
   4.620000      2.3087787E-25
   4.630000      2.3687422E-25
   4.640000      2.4212136E-25
   4.650000      2.4651186E-25
   4.660000      2.4993216E-25
   4.670000      2.5226256E-25
   4.680000      2.5337732E-25
   4.690000      2.5314460E-25
   4.700000      2.5142659E-25
   4.710000      2.4807979E-25
   4.720000      2.4295516E-25
   4.730000      2.3589808E-25
   4.740000      2.2674887E-25
   4.750000      2.1534288E-25
   4.760000      2.0151088E-25
   4.770000      1.8507974E-25
   4.780000      1.6587250E-25
   4.790000      1.4370921E-25
   4.800000      1.1840732E-25
   4.810000      8.9782238E-26
   4.820000      5.7648346E-26
   4.830000      2.1819699E-26
   4.840000     -1.7889764E-26
   4.850000     -6.1664671E-26
   4.860000     -1.0968683E-25
   4.870000     -1.6213510E-25
   4.880000     -2.1918389E-25
   4.890000     -2.8100165E-25
   4.900000     -3.4775013E-25
   4.910000     -4.1958244E-25
   4.920000     -4.9664143E-25
   4.930000     -5.7905857E-25
   4.940000     -6.6695217E-25
   4.950000     -7.6042587E-25
   4.960000     -8.5956661E-25
   4.970000     -9.6444310E-25
   4.980000     -1.0751033E-24
   4.990000     -1.1915731E-24
   5.000000     -1.3138535E-24
   5.010000     -1.4419184E-24
   5.020000     -1.5757128E-24
   5.030000     -1.7151505E-24
   5.040000     -1.8601117E-24
   5.050000     -2.0104400E-24
   5.060000     -2.1659405E-24
   5.070000     -2.3263766E-24
   5.080000     -2.4914693E-24
   5.090000     -2.6608917E-24
   5.100000     -2.8342688E-24
   5.110000     -3.0111728E-24
   5.120000     -3.1911228E-24
   5.130000     -3.3735810E-24
   5.140000     -3.5579496E-24
   5.150000     -3.7435690E-24
   5.160000     -3.9297161E-24
   5.170000     -4.1155998E-24
   5.180000     -4.3003597E-24
   5.190000     -4.4830638E-24
   5.200000     -4.6627067E-24
   5.210000     -4.8382070E-24
   5.220000     -5.0084069E-24
   5.230000     -5.1720691E-24
   5.240000     -5.3278750E-24
   5.250000     -5.4744253E-24
   5.260000     -5.6102368E-24
   5.270000     -5.7337428E-24
   5.280000     -5.8432951E-24
   5.290000     -5.9371589E-24
   5.300000     -6.0135163E-24
   5.310000     -6.0704649E-24
   5.320000     -6.1060248E-24
   5.330000     -6.1181279E-24
   5.340000     -6.1046336E-24
   5.350000     -6.0633234E-24
   5.360000     -5.9919011E-24
   5.370000     -5.8880022E-24
   5.380000     -5.7491950E-24
   5.390000     -5.5729856E-24
   5.400000     -5.3568258E-24
   5.410000     -5.0981150E-24
   5.420000     -4.7942087E-24
   5.430000     -4.4424272E-24
   5.440000     -4.0400600E-24
   5.450000     -3.5843816E-24
   5.460000     -3.0726471E-24
   5.470000     -2.5021110E-24
   5.480000     -1.8700478E-24
   5.490000     -1.1737514E-24
   5.500000     -4.1055149E-25
   5.510000      4.2217597E-25
   5.520000      1.3269901E-24
   5.530000      2.3063650E-24
   5.540000      3.3626813E-24
   5.550000      4.4982016E-24
   5.560000      5.7150535E-24
   5.570000      7.0152162E-24
   5.580000      8.4004843E-24
   5.590000      9.8724617E-24
   5.600000      1.1432534E-23
   5.610000      1.3081852E-23
   5.620000      1.4821297E-23
   5.630000      1.6651454E-23
   5.640000      1.8572599E-23
   5.650000      2.0584671E-23
   5.660000      2.2687231E-23
   5.670000      2.4879444E-23
   5.680000      2.7160039E-23
   5.690000      2.9527288E-23
   5.700000      3.1978976E-23
   5.710000      3.4512374E-23
   5.720000      3.7124204E-23
   5.730000      3.9810601E-23
   5.740000      4.2567092E-23
   5.750000      4.5388561E-23
   5.760000      4.8269219E-23
   5.770000      5.1202585E-23
   5.780000      5.4181422E-23
   5.790000      5.7197748E-23
   5.800000      6.0242764E-23
   5.810000      6.3306858E-23
   5.820000      6.6379565E-23
   5.830000      6.9449534E-23
   5.840000      7.2504496E-23
   5.850000      7.5531267E-23
   5.860000      7.8515698E-23
   5.870000      8.1442688E-23
   5.880000      8.4296136E-23
   5.890000      8.7058929E-23
   5.900000      8.9712929E-23
   5.910000      9.2238994E-23
   5.920000      9.4616930E-23
   5.930000      9.6825507E-23
   5.940000      9.8842479E-23
   5.950000      1.0064455E-22
   5.960000      1.0220741E-22
   5.970000      1.0350569E-22
   5.980000      1.0451306E-22
   5.990000      1.0520221E-22
   6.000000      1.0554491E-22
   6.010000      1.0551196E-22
   6.020000      1.0507327E-22
   6.030000      1.0419800E-22
   6.040000      1.0285453E-22
   6.050000      1.0101054E-22
   6.060000      9.8633090E-23
   6.070000      9.5688651E-23
   6.080000      9.2143226E-23
   6.090000      8.7962453E-23
   6.100000      8.3111614E-23
   6.110000      7.7555800E-23
   6.120000      7.1260090E-23
   6.130000      6.4189599E-23
   6.140000      5.6309630E-23
   6.150000      4.7585841E-23
   6.160000      3.7984315E-23
   6.170000      2.7471851E-23
   6.180000      1.6016137E-23
   6.190000      3.5858505E-24
   6.200000     -9.8491374E-24
   6.210000     -2.4317586E-23
   6.220000     -3.9846519E-23
   6.230000     -5.6461060E-23
   6.240000     -7.4184328E-23
   6.250000     -9.3037144E-23
   6.260000     -1.1303776E-22
   6.270000     -1.3420155E-22
   6.280000     -1.5654072E-22
   6.290000     -1.8006417E-22
   6.300000     -2.0477711E-22
   6.310000     -2.3068095E-22
   6.320000     -2.5777263E-22
   6.330000     -2.8604445E-22
   6.340000     -3.1548380E-22
   6.350000     -3.4607288E-22
   6.360000     -3.7778834E-22
   6.370000     -4.1060104E-22
   6.380000     -4.4447549E-22
   6.390000     -4.7936985E-22
   6.400000     -5.1523543E-22
   6.410000     -5.5201644E-22
   6.420000     -5.8964947E-22
   6.430000     -6.2806323E-22
   6.440000     -6.6717832E-22
   6.450000     -7.0690661E-22
   6.460000     -7.4715170E-22
   6.470000     -7.8780790E-22
   6.480000     -8.2876005E-22
   6.490000     -8.6988351E-22
   6.500000     -9.1104382E-22
   6.510000     -9.5209619E-22
   6.520000     -9.9288553E-22
   6.530000     -1.0332463E-21
   6.540000     -1.0730024E-21
   6.550000     -1.1119664E-21
   6.560000     -1.1499406E-21
   6.570000     -1.1867155E-21
   6.580000     -1.2220716E-21
   6.590000     -1.2557773E-21
   6.600000     -1.2875902E-21
   6.610000     -1.3172570E-21
   6.620000     -1.3445127E-21
   6.630000     -1.3690825E-21
   6.640000     -1.3906808E-21
   6.650000     -1.4090115E-21
   6.660000     -1.4237684E-21
   6.670000     -1.4346358E-21
   6.680000     -1.4412885E-21
   6.690000     -1.4433928E-21
   6.700000     -1.4406072E-21
   6.710000     -1.4325827E-21
   6.720000     -1.4189629E-21
   6.730000     -1.3993853E-21
   6.740000     -1.3734825E-21
   6.750000     -1.3408818E-21
   6.760000     -1.3012082E-21
   6.770000     -1.2540842E-21
   6.780000     -1.1991297E-21
   6.790000     -1.1359659E-21
   6.800000     -1.0642160E-21
   6.810000     -9.8350573E-22
   6.820000     -8.9346522E-22
   6.830000     -7.9373034E-22
   6.840000     -6.8394503E-22
   6.850000     -5.6376362E-22
   6.860000     -4.3285023E-22
   6.870000     -2.9088119E-22
   6.880000     -1.3754979E-22
   6.890000      2.7432319E-23
   6.900000      2.0433511E-22
   6.910000      3.9340703E-22
   6.920000      5.9487150E-22
   6.930000      8.0892690E-22
   6.940000      1.0357413E-21
   6.950000      1.2754501E-21
   6.960000      1.5281543E-21
   6.970000      1.7939177E-21
   6.980000      2.0727644E-21
   6.990000      2.3646745E-21
   7.000000      2.6695822E-21
   7.010000      2.9873731E-21
   7.020000      3.3178802E-21
   7.030000      3.6608817E-21
   7.040000      4.0160988E-21
   7.050000      4.3831921E-21
   7.060000      4.7617581E-21