  -2.600000      0.0000000E+00
  -2.590000      0.0000000E+00
  -2.580000      0.0000000E+00
  -2.570000      0.0000000E+00
  -2.560000      0.0000000E+00
  -2.550000      0.0000000E+00
  -2.540000      0.0000000E+00
  -2.530000      0.0000000E+00
  -2.520000      0.0000000E+00
  -2.510000      0.0000000E+00
  -2.500000      0.0000000E+00
  -2.490000      0.0000000E+00
  -2.480000      0.0000000E+00
  -2.470000      0.0000000E+00
  -2.460000      0.0000000E+00
  -2.450000      0.0000000E+00
  -2.440000      0.0000000E+00
  -2.430000      0.0000000E+00
  -2.420000      0.0000000E+00
  -2.410000      0.0000000E+00
  -2.400000      0.0000000E+00
  -2.390000      0.0000000E+00
  -2.380000      0.0000000E+00
  -2.370000      0.0000000E+00
  -2.360000      0.0000000E+00
  -2.350000      0.0000000E+00
  -2.340000      0.0000000E+00
  -2.330000      0.0000000E+00
  -2.320000      0.0000000E+00
  -2.310000      0.0000000E+00
  -2.300000      0.0000000E+00
  -2.290000      0.0000000E+00
  -2.280000      0.0000000E+00
  -2.270000      0.0000000E+00
  -2.260000      0.0000000E+00
  -2.250000      0.0000000E+00
  -2.240000      0.0000000E+00
  -2.230000      0.0000000E+00
  -2.220000      0.0000000E+00
  -2.210000      0.0000000E+00
  -2.200000      0.0000000E+00
  -2.190000      0.0000000E+00
  -2.180000      0.0000000E+00
  -2.170000      0.0000000E+00
  -2.160000      0.0000000E+00
  -2.150000      0.0000000E+00
  -2.140000      0.0000000E+00
  -2.130000      0.0000000E+00
  -2.120000      0.0000000E+00
  -2.110000      0.0000000E+00
  -2.100000      0.0000000E+00
  -2.090000      0.0000000E+00
  -2.080000      0.0000000E+00
  -2.070000      0.0000000E+00
  -2.060000      0.0000000E+00
  -2.050000      0.0000000E+00
  -2.040000      0.0000000E+00
  -2.030000      0.0000000E+00
  -2.020000      0.0000000E+00
  -2.010000      0.0000000E+00
  -2.000000      0.0000000E+00
  -1.990000      0.0000000E+00
  -1.980000      0.0000000E+00
  -1.970000      0.0000000E+00
  -1.960000      0.0000000E+00
  -1.950000      0.0000000E+00
  -1.940000      0.0000000E+00
  -1.930000      0.0000000E+00
  -1.920000      0.0000000E+00
  -1.910000      0.0000000E+00
  -1.900000      0.0000000E+00
  -1.890000      0.0000000E+00
  -1.880000      0.0000000E+00
  -1.870000      0.0000000E+00
  -1.860000      0.0000000E+00
  -1.850000      0.0000000E+00
  -1.840000      0.0000000E+00
  -1.830000      0.0000000E+00
  -1.820000      0.0000000E+00
  -1.810000      0.0000000E+00
  -1.800000      0.0000000E+00
  -1.790000      0.0000000E+00
  -1.780000      0.0000000E+00
  -1.770000      0.0000000E+00
  -1.760000      0.0000000E+00
  -1.750000      0.0000000E+00
  -1.740000      0.0000000E+00
  -1.730000      0.0000000E+00
  -1.720000      0.0000000E+00
  -1.710000      0.0000000E+00
  -1.700000      0.0000000E+00
  -1.690000      0.0000000E+00
  -1.680000      0.0000000E+00
  -1.670000      0.0000000E+00
  -1.660000      0.0000000E+00
  -1.650000      0.0000000E+00
  -1.640000      0.0000000E+00
  -1.630000      0.0000000E+00
  -1.620000      0.0000000E+00
  -1.610000      0.0000000E+00
  -1.600000      0.0000000E+00
  -1.590000      0.0000000E+00
  -1.580000      0.0000000E+00
  -1.570000      0.0000000E+00
  -1.560000      0.0000000E+00
  -1.550000      0.0000000E+00
  -1.540000      0.0000000E+00
  -1.530000      0.0000000E+00
  -1.520000      0.0000000E+00
  -1.510000      0.0000000E+00
  -1.500000      0.0000000E+00
  -1.490000      0.0000000E+00
  -1.480000      0.0000000E+00
  -1.470000      0.0000000E+00
  -1.460000      0.0000000E+00
  -1.450000      0.0000000E+00
  -1.440000      0.0000000E+00
  -1.430000      0.0000000E+00
  -1.420000      0.0000000E+00
  -1.410000      0.0000000E+00
  -1.400000      0.0000000E+00
  -1.390000      0.0000000E+00
  -1.380000      0.0000000E+00
  -1.370000      0.0000000E+00
  -1.360000      0.0000000E+00
  -1.350000      0.0000000E+00
  -1.340000      0.0000000E+00
  -1.330000      0.0000000E+00
  -1.320000      0.0000000E+00
  -1.310000      0.0000000E+00
  -1.300000      0.0000000E+00
  -1.290000      0.0000000E+00
  -1.280000      0.0000000E+00
  -1.270000      0.0000000E+00
  -1.260000      0.0000000E+00
  -1.250000      0.0000000E+00
  -1.240000      0.0000000E+00
  -1.230000      0.0000000E+00
  -1.220000      0.0000000E+00
  -1.210000      0.0000000E+00
  -1.200000      0.0000000E+00
  -1.190000      0.0000000E+00
  -1.180000      0.0000000E+00
  -1.170000      0.0000000E+00
  -1.160000      0.0000000E+00
  -1.150000      0.0000000E+00
  -1.140000      0.0000000E+00
  -1.130000      0.0000000E+00
  -1.120000      0.0000000E+00
  -1.110000      0.0000000E+00
  -1.100000      0.0000000E+00
  -1.090000      0.0000000E+00
  -1.080000      0.0000000E+00
  -1.070000      0.0000000E+00
  -1.060000      0.0000000E+00
  -1.050000      0.0000000E+00
  -1.040000      0.0000000E+00
  -1.030000      0.0000000E+00
  -1.020000      0.0000000E+00
  -1.010000      0.0000000E+00
  -1.000000      0.0000000E+00
 -0.9900000      0.0000000E+00
 -0.9800000      0.0000000E+00
 -0.9700000      0.0000000E+00
 -0.9600000      0.0000000E+00
 -0.9500000      0.0000000E+00
 -0.9400000      0.0000000E+00
 -0.9300000      0.0000000E+00
 -0.9200000      0.0000000E+00
 -0.9100000      0.0000000E+00
 -0.9000000      0.0000000E+00
 -0.8900000      0.0000000E+00
 -0.8800000      0.0000000E+00
 -0.8700000      0.0000000E+00
 -0.8600000      0.0000000E+00
 -0.8500000      0.0000000E+00
 -0.8400000      0.0000000E+00
 -0.8300000      0.0000000E+00
 -0.8200000      0.0000000E+00
 -0.8100000      0.0000000E+00
 -0.8000000      0.0000000E+00
 -0.7900000      0.0000000E+00
 -0.7800000      0.0000000E+00
 -0.7700000      0.0000000E+00
 -0.7600000      0.0000000E+00
 -0.7500000      0.0000000E+00
 -0.7400000      0.0000000E+00
 -0.7300000      0.0000000E+00
 -0.7200000      0.0000000E+00
 -0.7100000      0.0000000E+00
 -0.7000000      0.0000000E+00
 -0.6900000      0.0000000E+00
 -0.6800000      0.0000000E+00
 -0.6700000      0.0000000E+00
 -0.6600000      0.0000000E+00
 -0.6500000      0.0000000E+00
 -0.6400000      0.0000000E+00
 -0.6300000      0.0000000E+00
 -0.6200000      0.0000000E+00
 -0.6100000      0.0000000E+00
 -0.6000000      0.0000000E+00
 -0.5900000      0.0000000E+00
 -0.5800000      0.0000000E+00
 -0.5700000      0.0000000E+00
 -0.5600000      0.0000000E+00
 -0.5500000      0.0000000E+00
 -0.5400000      0.0000000E+00
 -0.5300000      0.0000000E+00
 -0.5200000      0.0000000E+00
 -0.5100000      0.0000000E+00
 -0.5000000      0.0000000E+00
 -0.4900000      0.0000000E+00
 -0.4800000      0.0000000E+00
 -0.4700000      0.0000000E+00
 -0.4600000      0.0000000E+00
 -0.4500000      0.0000000E+00
 -0.4400000      0.0000000E+00
 -0.4300000      0.0000000E+00
 -0.4200000      0.0000000E+00
 -0.4100000      0.0000000E+00
 -0.4000000      0.0000000E+00
 -0.3900000      0.0000000E+00
 -0.3800000      0.0000000E+00
 -0.3700000      0.0000000E+00
 -0.3600000      0.0000000E+00
 -0.3500000      0.0000000E+00
 -0.3400000      0.0000000E+00
 -0.3300000      0.0000000E+00
 -0.3200000      0.0000000E+00
 -0.3100000      0.0000000E+00
 -0.3000000      0.0000000E+00
 -0.2900000      0.0000000E+00
 -0.2800000      0.0000000E+00
 -0.2700000      0.0000000E+00
 -0.2600000      0.0000000E+00
 -0.2500000      0.0000000E+00
 -0.2400000      0.0000000E+00
 -0.2300000      0.0000000E+00
 -0.2200000      0.0000000E+00
 -0.2100000      0.0000000E+00
 -0.2000000      0.0000000E+00
 -0.1900000      0.0000000E+00
 -0.1800000      0.0000000E+00
 -0.1700000      0.0000000E+00
 -0.1600000      0.0000000E+00
 -0.1500000      0.0000000E+00
 -0.1400000      0.0000000E+00
 -0.1300000      0.0000000E+00
 -0.1200000      0.0000000E+00
 -0.1100000      0.0000000E+00
 -0.1000000      0.0000000E+00
 -9.0000004E-02  0.0000000E+00
 -7.9999998E-02  0.0000000E+00
 -7.0000000E-02  0.0000000E+00
 -5.9999999E-02  0.0000000E+00
 -5.0000001E-02  0.0000000E+00
 -3.9999999E-02  0.0000000E+00
 -2.9999999E-02  0.0000000E+00
 -2.0000000E-02  0.0000000E+00
 -9.9999998E-03  0.0000000E+00
 -3.4694470E-17  0.0000000E+00
  9.9999998E-03  0.0000000E+00
  2.0000000E-02  0.0000000E+00
  2.9999999E-02  0.0000000E+00
  3.9999999E-02  0.0000000E+00
  5.0000001E-02  0.0000000E+00
  5.9999999E-02  0.0000000E+00
  7.0000000E-02  0.0000000E+00
  7.9999998E-02  0.0000000E+00
  9.0000004E-02  0.0000000E+00
  0.1000000      0.0000000E+00
  0.1100000      0.0000000E+00
  0.1200000      0.0000000E+00
  0.1300000      0.0000000E+00
  0.1400000      0.0000000E+00
  0.1500000      0.0000000E+00
  0.1600000      0.0000000E+00
  0.1700000      0.0000000E+00
  0.1800000      0.0000000E+00
  0.1900000      0.0000000E+00
  0.2000000      0.0000000E+00
  0.2100000      0.0000000E+00
  0.2200000      0.0000000E+00
  0.2300000      0.0000000E+00
  0.2400000      0.0000000E+00
  0.2500000      0.0000000E+00
  0.2600000      0.0000000E+00
  0.2700000      0.0000000E+00
  0.2800000      0.0000000E+00
  0.2900000      0.0000000E+00
  0.3000000      0.0000000E+00
  0.3100000      0.0000000E+00
  0.3200000      0.0000000E+00
  0.3300000      0.0000000E+00
  0.3400000      0.0000000E+00
  0.3500000      0.0000000E+00
  0.3600000      0.0000000E+00
  0.3700000      0.0000000E+00
  0.3800000      0.0000000E+00
  0.3900000      0.0000000E+00
  0.4000000      0.0000000E+00
  0.4100000      0.0000000E+00
  0.4200000      0.0000000E+00
  0.4300000      0.0000000E+00
  0.4400000      0.0000000E+00
  0.4500000      0.0000000E+00
  0.4600000      0.0000000E+00
  0.4700000      0.0000000E+00
  0.4800000      0.0000000E+00
  0.4900000      0.0000000E+00
  0.5000000      0.0000000E+00
  0.5100000      0.0000000E+00
  0.5200000      0.0000000E+00
  0.5300000      0.0000000E+00
  0.5400000      0.0000000E+00
  0.5500000      0.0000000E+00
  0.5600000      0.0000000E+00
  0.5700000      0.0000000E+00
  0.5800000      0.0000000E+00
  0.5900000      0.0000000E+00
  0.6000000      0.0000000E+00
  0.6100000      0.0000000E+00
  0.6200000      0.0000000E+00
  0.6300000      0.0000000E+00
  0.6400000      0.0000000E+00
  0.6500000      0.0000000E+00
  0.6600000      0.0000000E+00
  0.6700000      0.0000000E+00
  0.6800000      0.0000000E+00
  0.6900000      0.0000000E+00
  0.7000000      0.0000000E+00
  0.7100000      0.0000000E+00
  0.7200000      0.0000000E+00
  0.7300000      0.0000000E+00
  0.7400000      0.0000000E+00
  0.7500000      0.0000000E+00
  0.7600000      0.0000000E+00
  0.7700000      0.0000000E+00
  0.7800000      0.0000000E+00
  0.7900000      0.0000000E+00
  0.8000000      0.0000000E+00
  0.8100000     -1.5304563E-38
  0.8200000     -2.5431675E-38
  0.8300000     -3.7550808E-38
  0.8400000     -5.0801150E-38
  0.8500000     -6.5132201E-38
  0.8600000     -7.8618085E-38
  0.8700000     -9.0777454E-38
  0.8800000     -1.0232655E-37
  0.8900000     -1.0948289E-37
  0.9000000     -1.1063774E-37
  0.9100000     -1.0789673E-37
  0.9200000     -1.0156318E-37
  0.9300000     -9.0480267E-38
  0.9400000     -7.5561550E-38
  0.9500000     -5.8185522E-38
  0.9600000     -3.7699068E-38
  0.9700000     -1.2876561E-38
  0.9800000      1.4003638E-38
  0.9900000      4.1351216E-38
   1.000000      6.7961204E-38
   1.010000      1.1576981E-37
   1.020000      1.8558003E-37
   1.030000      2.5805165E-37
   1.040000      3.4401258E-37
   1.050000      4.4573340E-37
   1.060000      5.6462593E-37
   1.070000      6.7429608E-37
   1.080000      7.6357287E-37
   1.090000      8.5403325E-37
   1.100000      9.2769070E-37
   1.110000      9.7996869E-37
   1.120000      1.0330051E-36
   1.130000      1.0797578E-36
   1.140000      1.1128283E-36
   1.150000      1.1261967E-36
   1.160000      1.1195589E-36
   1.170000      1.0865204E-36
   1.180000      1.0197501E-36
   1.190000      1.0342514E-36
   1.200000      1.1475724E-36
   1.210000      1.2680225E-36
   1.220000      1.3054250E-36
   1.230000      1.2561304E-36
   1.240000      1.1697677E-36
   1.250000      9.9750774E-37
   1.260000      7.2933388E-37
   1.270000      4.2861021E-37
   1.280000      1.2087412E-37
   1.290000     -2.0931224E-37
   1.300000     -5.5099621E-37
   1.310000     -8.8959951E-37
   1.320000     -1.2455569E-36
   1.330000     -1.6856990E-36
   1.340000     -2.2276248E-36
   1.350000     -3.0677066E-36
   1.360000     -4.1555519E-36
   1.370000     -5.2048887E-36
   1.380000     -6.0785664E-36
   1.390000     -6.8440454E-36
   1.400000     -7.5800301E-36
   1.410000     -8.2588114E-36
   1.420000     -9.0362878E-36
   1.430000     -9.7503978E-36
   1.440000     -1.0274228E-35
   1.450000     -1.0734838E-35
   1.460000     -1.1118161E-35
   1.470000     -1.1558863E-35
   1.480000     -1.1989557E-35
   1.490000     -1.2187579E-35
   1.500000     -1.1867900E-35
   1.510000     -1.1086354E-35
   1.520000     -1.0078086E-35
   1.530000     -8.6832413E-36
   1.540000     -6.9470848E-36
   1.550000     -4.9865153E-36
   1.560000     -2.4894219E-36
   1.570000      7.4548711E-37
   1.580000      4.4783831E-36
   1.590000      8.2937892E-36
   1.600000      1.2208533E-35
   1.610000      1.5884810E-35
   1.620000      1.9057378E-35
   1.630000      2.1866108E-35
   1.640000      2.4527284E-35
   1.650000      2.7231486E-35
   1.660000      2.9715039E-35
   1.670000      3.1723843E-35
   1.680000      3.3023445E-35
   1.690000      3.2362384E-35
   1.700000      2.8995523E-35
   1.710000      2.3776160E-35
   1.720000      1.7187556E-35
   1.730000      1.5914193E-35
   1.740000      2.2430054E-35
   1.750000      3.1037887E-35
   1.760000      3.9560140E-35
   1.770000      4.6820603E-35
   1.780000      4.9733817E-35
   1.790000      4.9648846E-35
   1.800000      5.0316812E-35
   1.810000      4.5986120E-35
   1.820000      3.5137555E-35
   1.830000      1.9639678E-35
   1.840000     -6.8672176E-37
   1.850000     -2.3942033E-35
   1.860000     -4.9862703E-35
   1.870000     -8.4359783E-35
   1.880000     -1.2477194E-34
   1.890000     -1.6317798E-34
   1.900000     -1.9757514E-34
   1.910000     -2.2702302E-34
   1.920000     -2.5131603E-34
   1.930000     -2.7510877E-34
   1.940000     -2.9841967E-34
   1.950000     -3.1812583E-34
   1.960000     -3.4085530E-34
   1.970000     -3.6185996E-34
   1.980000     -3.7563404E-34
   1.990000     -3.8594992E-34
   2.000000     -3.9313545E-34
   2.010000     -3.9229778E-34
   2.020000     -3.8427808E-34
   2.030000     -3.7479347E-34
   2.040000     -3.6578891E-34
   2.050000     -3.5600083E-34
   2.060000     -3.3754821E-34
   2.070000     -3.0479604E-34
   2.080000     -2.6207277E-34
   2.090000     -2.1182484E-34
   2.100000     -1.5055766E-34
   2.110000     -7.6407948E-35
   2.120000      9.9413690E-36
   2.130000      1.0979634E-34
   2.140000      2.2579488E-34
   2.150000      3.5339582E-34
   2.160000      4.9519040E-34
   2.170000      6.5627101E-34
   2.180000      8.3376703E-34
   2.190000      1.0260887E-33
   2.200000      1.2321890E-33
   2.210000      1.4522001E-33
   2.220000      1.6841139E-33
   2.230000      1.9266266E-33
   2.240000      2.1813111E-33
   2.250000      2.4472986E-33
   2.260000      2.7209361E-33
   2.270000      3.0016044E-33
   2.280000      3.2840024E-33
   2.290000      3.5621284E-33
   2.300000      3.8348810E-33
   2.310000      4.1004263E-33
   2.320000      4.3524611E-33
   2.330000      4.5845452E-33
   2.340000      4.7931175E-33
   2.350000      4.9731305E-33
   2.360000      5.1201022E-33
   2.370000      5.2276566E-33
   2.380000      5.2895273E-33
   2.390000      5.3011768E-33
   2.400000      5.2559365E-33
   2.410000      5.1476176E-33
   2.420000      4.9687268E-33
   2.430000      4.7139230E-33
   2.440000      4.3801102E-33
   2.450000      3.9611665E-33
   2.460000      3.4515240E-33
   2.470000      2.8458700E-33
   2.480000      2.1421695E-33
   2.490000      1.3363889E-33
   2.500000      4.2286439E-34
   2.510000     -6.0121719E-34
   2.520000     -1.7389734E-33
   2.530000     -2.9922561E-33
   2.540000     -4.3617611E-33
   2.550000     -5.8474353E-33
   2.560000     -7.4481548E-33
   2.570000     -9.1616105E-33
   2.580000     -1.0984189E-32
   2.590000     -1.2910863E-32
   2.600000     -1.4937010E-32
   2.610000     -1.7052719E-32
   2.620000     -1.9243975E-32
   2.630000     -2.1502642E-32
   2.640000     -2.3816313E-32
   2.650000     -2.6167265E-32
   2.660000     -2.8538243E-32
   2.670000     -3.0909224E-32
   2.680000     -3.3258332E-32
   2.690000     -3.5561546E-32
   2.700000     -3.7792805E-32
   2.710000     -3.9924073E-32
   2.720000     -4.1925455E-32
   2.730000     -4.3765218E-32
   2.740000     -4.5409932E-32
   2.750000     -4.6824551E-32
   2.760000     -4.7972985E-32
   2.770000     -4.8817954E-32
   2.780000     -4.9320904E-32
   2.790000     -4.9442715E-32
   2.800000     -4.9143772E-32
   2.810000     -4.8384308E-32
   2.820000     -4.7124666E-32
   2.830000     -4.5325631E-32
   2.840000     -4.2948928E-32
   2.850000     -3.9957519E-32
   2.860000     -3.6315902E-32
   2.870000     -3.1990726E-32
   2.880000     -2.6951214E-32
   2.890000     -2.1169628E-32
   2.900000     -1.4621729E-32
   2.910000     -7.2873354E-33
   2.920000      8.4918915E-34
   2.930000      9.7984088E-33
   2.940000      1.9565273E-32
   2.950000      3.0148606E-32
   2.960000      4.1540577E-32
   2.970000      5.3726140E-32
   2.980000      6.6682568E-32
   2.990000      8.0378923E-32
   3.000000      9.4778035E-32
   3.010000      1.0982840E-31
   3.020000      1.2546891E-31
   3.030000      1.4163348E-31
   3.040000      1.5824311E-31
   3.050000      1.7520802E-31
   3.060000      1.9242766E-31
   3.070000      2.0979029E-31
   3.080000      2.2717120E-31
   3.090000      2.4443483E-31
   3.100000      2.6143535E-31
   3.110000      2.7801476E-31
   3.120000      2.9400381E-31
   3.130000      3.0922244E-31
   3.140000      3.2348001E-31
   3.150000      3.3657598E-31
   3.160000      3.4830041E-31
   3.170000      3.5843482E-31
   3.180000      3.6675304E-31
   3.190000      3.7302223E-31
   3.200000      3.7700398E-31
   3.210000      3.7845570E-31
   3.220000      3.7713190E-31
   3.230000      3.7278593E-31
   3.240000      3.6517158E-31
   3.250000      3.5404484E-31
   3.260000      3.3916604E-31
   3.270000      3.2030192E-31
   3.280000      2.9722786E-31
   3.290000      2.6973025E-31
   3.300000      2.3760897E-31
   3.310000      2.0067985E-31
   3.320000      1.5877763E-31
   3.330000      1.1175843E-31
   3.340000      5.9502830E-32
   3.350000      1.9185137E-33
   3.360000     -6.1056693E-32
   3.370000     -1.2945189E-31
   3.380000     -2.0326018E-31
   3.390000     -2.8243560E-31
   3.400000     -3.6689045E-31
   3.410000     -4.5649209E-31
   3.420000     -5.5106028E-31
   3.430000     -6.5036430E-31
   3.440000     -7.5412053E-31
   3.450000     -8.6199010E-31
   3.460000     -9.7357545E-31
   3.470000     -1.0884188E-30
   3.480000     -1.2060011E-30
   3.490000     -1.3257388E-30
   3.500000     -1.4469831E-30
   3.510000     -1.5690186E-30
   3.520000     -1.6910626E-30
   3.530000     -1.8122642E-30
   3.540000     -1.9317045E-30
   3.550000     -2.0483971E-30
   3.560000     -2.1612884E-30
   3.570000     -2.2692599E-30
   3.580000     -2.3711288E-30
   3.590000     -2.4656511E-30
   3.600000     -2.5515245E-30
   3.610000     -2.6273920E-30
   3.620000     -2.6918465E-30
   3.630000     -2.7434349E-30
   3.640000     -2.7806644E-30
   3.650000     -2.8020088E-30
   3.660000     -2.8059150E-30
   3.670000     -2.7908117E-30
   3.680000     -2.7551175E-30
   3.690000     -2.6972497E-30
   3.700000     -2.6156348E-30
   3.710000     -2.5087199E-30
   3.720000     -2.3749833E-30
   3.730000     -2.2129465E-30
   3.740000     -2.0211886E-30
   3.750000     -1.7983574E-30
   3.760000     -1.5431862E-30
   3.770000     -1.2545065E-30
   3.780000     -9.3126462E-31
   3.790000     -5.7253703E-31
   3.800000     -1.7754643E-31
   3.810000      2.5432114E-31
   3.820000      7.2349900E-31
   3.830000      1.2302231E-30
   3.840000      1.7745137E-30
   3.850000      2.3561579E-30
   3.860000      2.9746925E-30
   3.870000      3.6293845E-30
   3.880000      4.3192146E-30
   3.890000      5.0428595E-30
   3.900000      5.7986730E-30
   3.910000      6.5846732E-30
   3.920000      7.3985208E-30
   3.930000      8.2375071E-30
   3.940000      9.0985407E-30
   3.950000      9.9781294E-30
   3.960000      1.0872371E-29
   3.970000      1.1776941E-29
   3.980000      1.2687083E-29
   3.990000      1.3597601E-29
   4.000000      1.4502851E-29
   4.010000      1.5396743E-29
   4.020000      1.6272731E-29
   4.030000      1.7123821E-29
   4.040000      1.7942570E-29
   4.050000      1.8721089E-29
   4.060000      1.9451060E-29
   4.070000      2.0123746E-29
   4.080000      2.0729997E-29
   4.090000      2.1260277E-29
   4.100000      2.1704687E-29
   4.110000      2.2052987E-29
   4.120000      2.2294630E-29
   4.130000      2.2418792E-29
   4.140000      2.2414409E-29
   4.150000      2.2270225E-29
   4.160000      2.1974832E-29
   4.170000      2.1516726E-29
   4.180000      2.0884362E-29
   4.190000      2.0066205E-29
   4.200000      1.9050815E-29
   4.210000      1.7826889E-29
   4.220000      1.6383356E-29
   4.230000      1.4709446E-29
   4.240000      1.2794779E-29
   4.250000      1.0629442E-29
   4.260000      8.2040944E-30
   4.270000      5.5100562E-30
   4.280000      2.5394125E-30
   4.290000     -7.1488314E-31
   4.300000     -4.2588973E-30
   4.310000     -8.0976025E-30
   4.320000     -1.2234764E-29
   4.330000     -1.6672822E-29
   4.340000     -2.1412758E-29
   4.350000     -2.6453984E-29
   4.360000     -3.1794205E-29
   4.370000     -3.7429293E-29
   4.380000     -4.3353152E-29
   4.390000     -4.9557605E-29
   4.400000     -5.6032241E-29
   4.410000     -6.2764305E-29
   4.420000     -6.9738555E-29
   4.430000     -7.6937140E-29
   4.440000     -8.4339482E-29
   4.450000     -9.1922169E-29
   4.460000     -9.9658804E-29
   4.470000     -1.0751994E-28
   4.480000     -1.1547293E-28
   4.490000     -1.2348190E-28
   4.500000     -1.3150760E-28
   4.510000     -1.3950734E-28
   4.520000     -1.4743496E-28
   4.530000     -1.5524071E-28
   4.540000     -1.6287129E-28
   4.550000     -1.7026975E-28
   4.560000     -1.7737551E-28
   4.570000     -1.8412438E-28
   4.580000     -1.9044852E-28
   4.590000     -1.9627654E-28
   4.600000     -2.0153351E-28
   4.610000     -2.0614109E-28
   4.620000     -2.1001763E-28
   4.630000     -2.1307822E-28
   4.640000     -2.1523493E-28
   4.650000     -2.1639693E-28
   4.660000     -2.1647077E-28
   4.670000     -2.1536045E-28
   4.680000     -2.1296794E-28
   4.690000     -2.0919321E-28
   4.700000     -2.0393480E-28
   4.710000     -1.9708994E-28
   4.720000     -1.8855521E-28
   4.730000     -1.7822675E-28
   4.740000     -1.6600083E-28
   4.750000     -1.5177434E-28
   4.760000     -1.3544544E-28
   4.770000     -1.1691402E-28
   4.780000     -9.6082316E-29
   4.790000     -7.2855637E-29
   4.800000     -4.7143064E-29
   4.810000     -1.8858145E-29
   4.820000      1.2080290E-29
   4.830000      4.5747246E-29
   4.840000      8.2210805E-29
   4.850000      1.2153122E-28
   4.860000      1.6375993E-28
   4.870000      2.0893860E-28
   4.880000      2.5709817E-28
   4.890000      3.0825777E-28
   4.900000      3.6242371E-28
   4.910000      4.1958835E-28
   4.920000      4.7972898E-28
   4.930000      5.4280679E-28
   4.940000      6.0876566E-28
   4.950000      6.7753074E-28
   4.960000      7.4900764E-28
   4.970000      8.2308112E-28
   4.980000      8.9961382E-28
   4.990000      9.7844492E-28
   5.000000      1.0593894E-27
   5.010000      1.1422365E-27
   5.020000      1.2267486E-27
   5.030000      1.3126602E-27
   5.040000      1.3996768E-27
   5.050000      1.4874737E-27
   5.060000      1.5756952E-27
   5.070000      1.6639534E-27
   5.080000      1.7518274E-27
   5.090000      1.8388631E-27
   5.100000      1.9245710E-27
   5.110000      2.0084270E-27
   5.120000      2.0898709E-27
   5.130000      2.1683069E-27
   5.140000      2.2431023E-27
   5.150000      2.3135879E-27
   5.160000      2.3790581E-27
   5.170000      2.4387706E-27
   5.180000      2.4919469E-27
   5.190000      2.5377729E-27
   5.200000      2.5753994E-27
   5.210000      2.6039426E-27
   5.220000      2.6224870E-27
   5.230000      2.6300844E-27
   5.240000      2.6257574E-27
   5.250000      2.6084990E-27
   5.260000      2.5772771E-27
   5.270000      2.5310359E-27
   5.280000      2.4686986E-27
   5.290000      2.3891702E-27
   5.300000      2.2913416E-27
   5.310000      2.1740922E-27
   5.320000      2.0362946E-27
   5.330000      1.8768185E-27
   5.340000      1.6945366E-27
   5.350000      1.4883277E-27
   5.360000      1.2570841E-27
   5.370000      9.9971672E-28
   5.380000      7.1516077E-28
   5.390000      4.0238298E-28
   5.400000      6.0388545E-29
   5.410000     -3.1177096E-28
   5.420000     -7.1499032E-28
   5.430000     -1.1501018E-27
   5.440000     -1.6178670E-27
   5.450000     -2.1189676E-27
   5.460000     -2.6539968E-27
   5.470000     -3.2234472E-27
   5.480000     -3.8277022E-27
   5.490000     -4.4670262E-27
   5.500000     -5.1415516E-27
   5.510000     -5.8512683E-27
   5.520000     -6.5960135E-27
   5.530000     -7.3754581E-27
   5.540000     -8.1890957E-27
   5.550000     -9.0362306E-27
   5.560000     -9.9159646E-27
   5.570000     -1.0827185E-26
   5.580000     -1.1768551E-26
   5.590000     -1.2738483E-26
   5.600000     -1.3735144E-26
   5.610000     -1.4756438E-26
   5.620000     -1.5799984E-26
   5.630000     -1.6863117E-26
   5.640000     -1.7942865E-26
   5.650000     -1.9035941E-26
   5.660000     -2.0138731E-26
   5.670000     -2.1247291E-26
   5.680000     -2.2357321E-26
   5.690000     -2.3464165E-26
   5.700000     -2.4562804E-26
   5.710000     -2.5647836E-26
   5.720000     -2.6713483E-26
   5.730000     -2.7753569E-26
   5.740000     -2.8761536E-26
   5.750000     -2.9730414E-26
   5.760000     -3.0652839E-26
   5.770000     -3.1521033E-26
   5.780000     -3.2326823E-26
   5.790000     -3.3061632E-26
   5.800000     -3.3716482E-26
   5.810000     -3.4282003E-26
   5.820000     -3.4748438E-26
   5.830000     -3.5105663E-26
   5.840000     -3.5343175E-26
   5.850000     -3.5450124E-26
   5.860000     -3.5415340E-26
   5.870000     -3.5227329E-26
   5.880000     -3.4874305E-26
   5.890000     -3.4344224E-26
   5.900000     -3.3624799E-26
   5.910000     -3.2703538E-26
   5.920000     -3.1567785E-26
   5.930000     -3.0204745E-26
   5.940000     -2.8601539E-26
   5.950000     -2.6745241E-26
   5.960000     -2.4622925E-26
   5.970000     -2.2221726E-26
   5.980000     -1.9528899E-26
   5.990000     -1.6531862E-26
   6.000000     -1.3218284E-26
   6.010000     -9.5761374E-27
   6.020000     -5.5937776E-27
   6.030000     -1.2600131E-27
   6.040000      3.4358043E-27
   6.050000      8.5036933E-27
   6.060000      1.3952962E-26
   6.070000      1.9792120E-26
   6.080000      2.6028771E-26
   6.090000      3.2669507E-26
   6.100000      3.9719825E-26
   6.110000      4.7184002E-26
   6.120000      5.5064987E-26
   6.130000      6.3364278E-26
   6.140000      7.2081832E-26
   6.150000      8.1215917E-26
   6.160000      9.0762995E-26
   6.170000      1.0071761E-25
   6.180000      1.1107224E-25
   6.190000      1.2181722E-25
   6.200000      1.3294053E-25
   6.210000      1.4442772E-25
   6.220000      1.5626183E-25
   6.230000      1.6842312E-25
   6.240000      1.8088908E-25
   6.250000      1.9363422E-25
   6.260000      2.0662999E-25
   6.270000      2.1984464E-25
   6.280000      2.3324307E-25
   6.290000      2.4678683E-25
   6.300000      2.6043382E-25
   6.310000      2.7413838E-25
   6.320000      2.8785110E-25
   6.330000      3.0151871E-25
   6.340000      3.1508401E-25
   6.350000      3.2848590E-25
   6.360000      3.4165916E-25
   6.370000      3.5453445E-25
   6.380000      3.6703837E-25
   6.390000      3.7909332E-25
   6.400000      3.9061752E-25
   6.410000      4.0152507E-25
   6.420000      4.1172583E-25
   6.430000      4.2112560E-25
   6.440000      4.2962617E-25
   6.450000      4.3712528E-25
   6.460000      4.4351673E-25
   6.470000      4.4869072E-25
   6.480000      4.5253371E-25
   6.490000      4.5492879E-25
   6.500000      4.5575566E-25
   6.510000      4.5489112E-25
   6.520000      4.5220909E-25
   6.530000      4.4758089E-25
   6.540000      4.4087582E-25
   6.550000      4.3196115E-25
   6.560000      4.2070263E-25
   6.570000      4.0696496E-25
   6.580000      3.9061202E-25
   6.590000      3.7150763E-25
   6.600000      3.4951579E-25
   6.610000      3.2450124E-25
   6.620000      2.9633025E-25
   6.630000      2.6487099E-25
   6.640000      2.2999422E-25
   6.650000      1.9157406E-25
   6.660000      1.4948859E-25
   6.670000      1.0362066E-25
   6.680000      5.3858689E-26
   6.690000      9.7368927E-29
   6.700000     -5.7761295E-26
   6.710000     -1.1980726E-25
   6.720000     -1.8612148E-25
   6.730000     -2.5677482E-25
   6.740000     -3.3182726E-25
   6.750000     -4.1132689E-25
   6.760000     -4.9530875E-25
   6.770000     -5.8379380E-25
   6.780000     -6.7678783E-25
   6.790000     -7.7428054E-25
   6.800000     -8.7624411E-25
   6.810000     -9.8263226E-25
   6.820000     -1.0933792E-24
   6.830000     -1.2083981E-24
   6.840000     -1.3275803E-24
   6.850000     -1.4507941E-24
   6.860000     -1.5778833E-24
   6.870000     -1.7086664E-24
   6.880000     -1.8429353E-24
   6.890000     -1.9804544E-24
   6.900000     -2.1209590E-24
   6.910000     -2.2641548E-24
   6.920000     -2.4097168E-24
   6.930000     -2.5572879E-24
   6.940000     -2.7064782E-24
   6.950000     -2.8568647E-24
   6.960000     -3.0079893E-24
   6.970000     -3.1593591E-24
   6.980000     -3.3104449E-24
   6.990000     -3.4606811E-24
   7.000000     -3.6094658E-24
   7.010000     -3.7561588E-24
   7.020000     -3.9000826E-24
   7.030000     -4.0405223E-24
   7.040000     -4.1767239E-24
   7.050000     -4.3078964E-24
   7.060000     -4.4332113E-24