  -2.600000      0.0000000E+00
  -2.590000      0.0000000E+00
  -2.580000      0.0000000E+00
  -2.570000      0.0000000E+00
  -2.560000      0.0000000E+00
  -2.550000      0.0000000E+00
  -2.540000      0.0000000E+00
  -2.530000      0.0000000E+00
  -2.520000      0.0000000E+00
  -2.510000      0.0000000E+00
  -2.500000      0.0000000E+00
  -2.490000      0.0000000E+00
  -2.480000      0.0000000E+00
  -2.470000      0.0000000E+00
  -2.460000      0.0000000E+00
  -2.450000      0.0000000E+00
  -2.440000      0.0000000E+00
  -2.430000      0.0000000E+00
  -2.420000      0.0000000E+00
  -2.410000      0.0000000E+00
  -2.400000      0.0000000E+00
  -2.390000      0.0000000E+00
  -2.380000      0.0000000E+00
  -2.370000      0.0000000E+00
  -2.360000      0.0000000E+00
  -2.350000      0.0000000E+00
  -2.340000      0.0000000E+00
  -2.330000      0.0000000E+00
  -2.320000      0.0000000E+00
  -2.310000      0.0000000E+00
  -2.300000      0.0000000E+00
  -2.290000      0.0000000E+00
  -2.280000      0.0000000E+00
  -2.270000      0.0000000E+00
  -2.260000      0.0000000E+00
  -2.250000      0.0000000E+00
  -2.240000      0.0000000E+00
  -2.230000      0.0000000E+00
  -2.220000      0.0000000E+00
  -2.210000      0.0000000E+00
  -2.200000      0.0000000E+00
  -2.190000      0.0000000E+00
  -2.180000      0.0000000E+00
  -2.170000      0.0000000E+00
  -2.160000      0.0000000E+00
  -2.150000      0.0000000E+00
  -2.140000      0.0000000E+00
  -2.130000      0.0000000E+00
  -2.120000      0.0000000E+00
  -2.110000      0.0000000E+00
  -2.100000      0.0000000E+00
  -2.090000      0.0000000E+00
  -2.080000      0.0000000E+00
  -2.070000      0.0000000E+00
  -2.060000      0.0000000E+00
  -2.050000      0.0000000E+00
  -2.040000      0.0000000E+00
  -2.030000      0.0000000E+00
  -2.020000      0.0000000E+00
  -2.010000      0.0000000E+00
  -2.000000      0.0000000E+00
  -1.990000      0.0000000E+00
  -1.980000      0.0000000E+00
  -1.970000      0.0000000E+00
  -1.960000      0.0000000E+00
  -1.950000      0.0000000E+00
  -1.940000      0.0000000E+00
  -1.930000      0.0000000E+00
  -1.920000      0.0000000E+00
  -1.910000      0.0000000E+00
  -1.900000      0.0000000E+00
  -1.890000      0.0000000E+00
  -1.880000      0.0000000E+00
  -1.870000      0.0000000E+00
  -1.860000      0.0000000E+00
  -1.850000      0.0000000E+00
  -1.840000      0.0000000E+00
  -1.830000      0.0000000E+00
  -1.820000      0.0000000E+00
  -1.810000      0.0000000E+00
  -1.800000      0.0000000E+00
  -1.790000      0.0000000E+00
  -1.780000      0.0000000E+00
  -1.770000      0.0000000E+00
  -1.760000      0.0000000E+00
  -1.750000      0.0000000E+00
  -1.740000      0.0000000E+00
  -1.730000      0.0000000E+00
  -1.720000      0.0000000E+00
  -1.710000      0.0000000E+00
  -1.700000      0.0000000E+00
  -1.690000      0.0000000E+00
  -1.680000      0.0000000E+00
  -1.670000      0.0000000E+00
  -1.660000      0.0000000E+00
  -1.650000      0.0000000E+00
  -1.640000      0.0000000E+00
  -1.630000      0.0000000E+00
  -1.620000      0.0000000E+00
  -1.610000      0.0000000E+00
  -1.600000      0.0000000E+00
  -1.590000      0.0000000E+00
  -1.580000      0.0000000E+00
  -1.570000      0.0000000E+00
  -1.560000      0.0000000E+00
  -1.550000      0.0000000E+00
  -1.540000      0.0000000E+00
  -1.530000      0.0000000E+00
  -1.520000      0.0000000E+00
  -1.510000      0.0000000E+00
  -1.500000      0.0000000E+00
  -1.490000      0.0000000E+00
  -1.480000      0.0000000E+00
  -1.470000      0.0000000E+00
  -1.460000      0.0000000E+00
  -1.450000      0.0000000E+00
  -1.440000      0.0000000E+00
  -1.430000      0.0000000E+00
  -1.420000      0.0000000E+00
  -1.410000      0.0000000E+00
  -1.400000      0.0000000E+00
  -1.390000      0.0000000E+00
  -1.380000      0.0000000E+00
  -1.370000      0.0000000E+00
  -1.360000      0.0000000E+00
  -1.350000      0.0000000E+00
  -1.340000      0.0000000E+00
  -1.330000      0.0000000E+00
  -1.320000      0.0000000E+00
  -1.310000      0.0000000E+00
  -1.300000      0.0000000E+00
  -1.290000      0.0000000E+00
  -1.280000      0.0000000E+00
  -1.270000      0.0000000E+00
  -1.260000      0.0000000E+00
  -1.250000      0.0000000E+00
  -1.240000      0.0000000E+00
  -1.230000      0.0000000E+00
  -1.220000      0.0000000E+00
  -1.210000      0.0000000E+00
  -1.200000      0.0000000E+00
  -1.190000      0.0000000E+00
  -1.180000      0.0000000E+00
  -1.170000      0.0000000E+00
  -1.160000      0.0000000E+00
  -1.150000      0.0000000E+00
  -1.140000      0.0000000E+00
  -1.130000      0.0000000E+00
  -1.120000      0.0000000E+00
  -1.110000      0.0000000E+00
  -1.100000      0.0000000E+00
  -1.090000      0.0000000E+00
  -1.080000      0.0000000E+00
  -1.070000      0.0000000E+00
  -1.060000      0.0000000E+00
  -1.050000      0.0000000E+00
  -1.040000      0.0000000E+00
  -1.030000      0.0000000E+00
  -1.020000      0.0000000E+00
  -1.010000      0.0000000E+00
  -1.000000      0.0000000E+00
 -0.9900000      0.0000000E+00
 -0.9800000      0.0000000E+00
 -0.9700000      0.0000000E+00
 -0.9600000      0.0000000E+00
 -0.9500000      0.0000000E+00
 -0.9400000      0.0000000E+00
 -0.9300000      0.0000000E+00
 -0.9200000      0.0000000E+00
 -0.9100000      0.0000000E+00
 -0.9000000      0.0000000E+00
 -0.8900000      0.0000000E+00
 -0.8800000      0.0000000E+00
 -0.8700000      0.0000000E+00
 -0.8600000      0.0000000E+00
 -0.8500000      0.0000000E+00
 -0.8400000      0.0000000E+00
 -0.8300000      0.0000000E+00
 -0.8200000      0.0000000E+00
 -0.8100000      0.0000000E+00
 -0.8000000      0.0000000E+00
 -0.7900000      0.0000000E+00
 -0.7800000      0.0000000E+00
 -0.7700000      0.0000000E+00
 -0.7600000      0.0000000E+00
 -0.7500000      0.0000000E+00
 -0.7400000      0.0000000E+00
 -0.7300000      0.0000000E+00
 -0.7200000      0.0000000E+00
 -0.7100000      0.0000000E+00
 -0.7000000      0.0000000E+00
 -0.6900000      0.0000000E+00
 -0.6800000      0.0000000E+00
 -0.6700000      0.0000000E+00
 -0.6600000      0.0000000E+00
 -0.6500000      0.0000000E+00
 -0.6400000      0.0000000E+00
 -0.6300000      0.0000000E+00
 -0.6200000      0.0000000E+00
 -0.6100000      0.0000000E+00
 -0.6000000      0.0000000E+00
 -0.5900000      0.0000000E+00
 -0.5800000      0.0000000E+00
 -0.5700000      0.0000000E+00
 -0.5600000      0.0000000E+00
 -0.5500000      0.0000000E+00
 -0.5400000      0.0000000E+00
 -0.5300000      0.0000000E+00
 -0.5200000      0.0000000E+00
 -0.5100000      0.0000000E+00
 -0.5000000      0.0000000E+00
 -0.4900000      0.0000000E+00
 -0.4800000      0.0000000E+00
 -0.4700000      0.0000000E+00
 -0.4600000      0.0000000E+00
 -0.4500000      0.0000000E+00
 -0.4400000      0.0000000E+00
 -0.4300000      0.0000000E+00
 -0.4200000      0.0000000E+00
 -0.4100000      0.0000000E+00
 -0.4000000      0.0000000E+00
 -0.3900000      0.0000000E+00
 -0.3800000      0.0000000E+00
 -0.3700000      0.0000000E+00
 -0.3600000      0.0000000E+00
 -0.3500000      0.0000000E+00
 -0.3400000      0.0000000E+00
 -0.3300000      0.0000000E+00
 -0.3200000      0.0000000E+00
 -0.3100000      0.0000000E+00
 -0.3000000      0.0000000E+00
 -0.2900000      0.0000000E+00
 -0.2800000      0.0000000E+00
 -0.2700000      0.0000000E+00
 -0.2600000      0.0000000E+00
 -0.2500000      0.0000000E+00
 -0.2400000      0.0000000E+00
 -0.2300000      0.0000000E+00
 -0.2200000      0.0000000E+00
 -0.2100000      0.0000000E+00
 -0.2000000      0.0000000E+00
 -0.1900000      0.0000000E+00
 -0.1800000      0.0000000E+00
 -0.1700000      0.0000000E+00
 -0.1600000      0.0000000E+00
 -0.1500000      0.0000000E+00
 -0.1400000      0.0000000E+00
 -0.1300000      0.0000000E+00
 -0.1200000      0.0000000E+00
 -0.1100000      0.0000000E+00
 -0.1000000      0.0000000E+00
 -9.0000004E-02  0.0000000E+00
 -7.9999998E-02  0.0000000E+00
 -7.0000000E-02  0.0000000E+00
 -5.9999999E-02  0.0000000E+00
 -5.0000001E-02  0.0000000E+00
 -3.9999999E-02  0.0000000E+00
 -2.9999999E-02  0.0000000E+00
 -2.0000000E-02  0.0000000E+00
 -9.9999998E-03  0.0000000E+00
 -3.4694470E-17  0.0000000E+00
  9.9999998E-03  0.0000000E+00
  2.0000000E-02  0.0000000E+00
  2.9999999E-02  0.0000000E+00
  3.9999999E-02  0.0000000E+00
  5.0000001E-02  0.0000000E+00
  5.9999999E-02  0.0000000E+00
  7.0000000E-02  0.0000000E+00
  7.9999998E-02  0.0000000E+00
  9.0000004E-02  0.0000000E+00
  0.1000000      0.0000000E+00
  0.1100000      0.0000000E+00
  0.1200000      0.0000000E+00
  0.1300000      0.0000000E+00
  0.1400000      0.0000000E+00
  0.1500000      0.0000000E+00
  0.1600000      0.0000000E+00
  0.1700000      0.0000000E+00
  0.1800000      0.0000000E+00
  0.1900000      0.0000000E+00
  0.2000000      0.0000000E+00
  0.2100000      0.0000000E+00
  0.2200000      0.0000000E+00
  0.2300000      0.0000000E+00
  0.2400000      0.0000000E+00
  0.2500000      0.0000000E+00
  0.2600000      0.0000000E+00
  0.2700000      0.0000000E+00
  0.2800000      0.0000000E+00
  0.2900000      0.0000000E+00
  0.3000000      0.0000000E+00
  0.3100000      0.0000000E+00
  0.3200000      0.0000000E+00
  0.3300000      0.0000000E+00
  0.3400000      0.0000000E+00
  0.3500000      0.0000000E+00
  0.3600000      0.0000000E+00
  0.3700000      0.0000000E+00
  0.3800000      0.0000000E+00
  0.3900000      0.0000000E+00
  0.4000000      0.0000000E+00
  0.4100000      0.0000000E+00
  0.4200000      0.0000000E+00
  0.4300000      0.0000000E+00
  0.4400000      0.0000000E+00
  0.4500000      0.0000000E+00
  0.4600000      0.0000000E+00
  0.4700000      0.0000000E+00
  0.4800000      0.0000000E+00
  0.4900000      0.0000000E+00
  0.5000000      0.0000000E+00
  0.5100000      0.0000000E+00
  0.5200000      0.0000000E+00
  0.5300000      0.0000000E+00
  0.5400000      0.0000000E+00
  0.5500000      0.0000000E+00
  0.5600000      0.0000000E+00
  0.5700000      0.0000000E+00
  0.5800000      0.0000000E+00
  0.5900000      0.0000000E+00
  0.6000000      0.0000000E+00
  0.6100000      0.0000000E+00
  0.6200000      0.0000000E+00
  0.6300000      0.0000000E+00
  0.6400000      0.0000000E+00
  0.6500000      0.0000000E+00
  0.6600000      0.0000000E+00
  0.6700000      0.0000000E+00
  0.6800000      0.0000000E+00
  0.6900000      0.0000000E+00
  0.7000000      0.0000000E+00
  0.7100000      0.0000000E+00
  0.7200000      0.0000000E+00
  0.7300000      0.0000000E+00
  0.7400000      0.0000000E+00
  0.7500000      0.0000000E+00
  0.7600000      0.0000000E+00
  0.7700000      0.0000000E+00
  0.7800000      0.0000000E+00
  0.7900000      0.0000000E+00
  0.8000000      0.0000000E+00
  0.8100000      0.0000000E+00
  0.8200000      0.0000000E+00
  0.8300000      0.0000000E+00
  0.8400000      0.0000000E+00
  0.8500000      0.0000000E+00
  0.8600000      0.0000000E+00
  0.8700000      0.0000000E+00
  0.8800000      0.0000000E+00
  0.8900000      0.0000000E+00
  0.9000000      0.0000000E+00
  0.9100000      0.0000000E+00
  0.9200000      0.0000000E+00
  0.9300000      0.0000000E+00
  0.9400000      0.0000000E+00
  0.9500000      0.0000000E+00
  0.9600000      0.0000000E+00
  0.9700000      0.0000000E+00
  0.9800000      0.0000000E+00
  0.9900000      0.0000000E+00
   1.000000      0.0000000E+00
   1.010000      0.0000000E+00
   1.020000      0.0000000E+00
   1.030000      0.0000000E+00
   1.040000      0.0000000E+00
   1.050000      0.0000000E+00
   1.060000      0.0000000E+00
   1.070000      0.0000000E+00
   1.080000      0.0000000E+00
   1.090000      0.0000000E+00
   1.100000      0.0000000E+00
   1.110000      0.0000000E+00
   1.120000      0.0000000E+00
   1.130000      0.0000000E+00
   1.140000      0.0000000E+00
   1.150000      0.0000000E+00
   1.160000      0.0000000E+00
   1.170000      0.0000000E+00
   1.180000      0.0000000E+00
   1.190000      0.0000000E+00
   1.200000      0.0000000E+00
   1.210000      0.0000000E+00
   1.220000      0.0000000E+00
   1.230000      0.0000000E+00
   1.240000      0.0000000E+00
   1.250000      0.0000000E+00
   1.260000      0.0000000E+00
   1.270000      0.0000000E+00
   1.280000      0.0000000E+00
   1.290000      0.0000000E+00
   1.300000      0.0000000E+00
   1.310000      0.0000000E+00
   1.320000      0.0000000E+00
   1.330000      0.0000000E+00
   1.340000      0.0000000E+00
   1.350000      0.0000000E+00
   1.360000      0.0000000E+00
   1.370000      0.0000000E+00
   1.380000      0.0000000E+00
   1.390000      0.0000000E+00
   1.400000      0.0000000E+00
   1.410000      0.0000000E+00
   1.420000      0.0000000E+00
   1.430000      0.0000000E+00
   1.440000      0.0000000E+00
   1.450000      0.0000000E+00
   1.460000      0.0000000E+00
   1.470000      0.0000000E+00
   1.480000      0.0000000E+00
   1.490000      0.0000000E+00
   1.500000      0.0000000E+00
   1.510000      0.0000000E+00
   1.520000      0.0000000E+00
   1.530000      0.0000000E+00
   1.540000      0.0000000E+00
   1.550000      0.0000000E+00
   1.560000      0.0000000E+00
   1.570000      0.0000000E+00
   1.580000      0.0000000E+00
   1.590000      0.0000000E+00
   1.600000      0.0000000E+00
   1.610000      0.0000000E+00
   1.620000      0.0000000E+00
   1.630000      0.0000000E+00
   1.640000      0.0000000E+00
   1.650000      0.0000000E+00
   1.660000      0.0000000E+00
   1.670000      0.0000000E+00
   1.680000      0.0000000E+00
   1.690000      0.0000000E+00
   1.700000      0.0000000E+00
   1.710000      0.0000000E+00
   1.720000      0.0000000E+00
   1.730000      0.0000000E+00
   1.740000      0.0000000E+00
   1.750000      0.0000000E+00
   1.760000      0.0000000E+00
   1.770000      0.0000000E+00
   1.780000      0.0000000E+00
   1.790000      0.0000000E+00
   1.800000      0.0000000E+00
   1.810000      0.0000000E+00
   1.820000      0.0000000E+00
   1.830000      0.0000000E+00
   1.840000      0.0000000E+00
   1.850000      0.0000000E+00
   1.860000      0.0000000E+00
   1.870000      0.0000000E+00
   1.880000      0.0000000E+00
   1.890000      0.0000000E+00
   1.900000      0.0000000E+00
   1.910000      0.0000000E+00
   1.920000      0.0000000E+00
   1.930000      0.0000000E+00
   1.940000      0.0000000E+00
   1.950000      0.0000000E+00
   1.960000      0.0000000E+00
   1.970000      0.0000000E+00
   1.980000      0.0000000E+00
   1.990000      0.0000000E+00
   2.000000      0.0000000E+00
   2.010000      0.0000000E+00
   2.020000      0.0000000E+00
   2.030000      0.0000000E+00
   2.040000      0.0000000E+00
   2.050000      0.0000000E+00
   2.060000      0.0000000E+00
   2.070000      0.0000000E+00
   2.080000      0.0000000E+00
   2.090000      0.0000000E+00
   2.100000      0.0000000E+00
   2.110000      0.0000000E+00
   2.120000      0.0000000E+00
   2.130000      0.0000000E+00
   2.140000      0.0000000E+00
   2.150000      0.0000000E+00
   2.160000      0.0000000E+00
   2.170000      0.0000000E+00
   2.180000      0.0000000E+00
   2.190000      0.0000000E+00
   2.200000      0.0000000E+00
   2.210000      0.0000000E+00
   2.220000      0.0000000E+00
   2.230000      0.0000000E+00
   2.240000      0.0000000E+00
   2.250000      0.0000000E+00
   2.260000      0.0000000E+00
   2.270000      0.0000000E+00
   2.280000      0.0000000E+00
   2.290000      0.0000000E+00
   2.300000      0.0000000E+00
   2.310000      0.0000000E+00
   2.320000      0.0000000E+00
   2.330000      0.0000000E+00
   2.340000      0.0000000E+00
   2.350000      0.0000000E+00
   2.360000      0.0000000E+00
   2.370000     -1.2253877E-38
   2.380000     -1.3178307E-38
   2.390000     -1.4166774E-38
   2.400000     -1.4950397E-38
   2.410000     -1.5532335E-38
   2.420000     -1.6068185E-38
   2.430000     -1.6567653E-38
   2.440000     -1.7044290E-38
   2.450000     -1.7514605E-38
   2.460000     -1.7994591E-38
   2.470000     -1.8499847E-38
   2.480000     -1.8908012E-38
   2.490000     -1.9130822E-38
   2.500000     -1.9320515E-38
   2.510000     -2.0118961E-38
   2.520000     -2.1572624E-38
   2.530000     -2.3447479E-38
   2.540000     -2.5869105E-38
   2.550000     -2.8081248E-38
   2.560000     -2.9498975E-38
   2.570000     -3.0625611E-38
   2.580000     -3.1930634E-38
   2.590000     -3.3438967E-38
   2.600000     -3.5611285E-38
   2.610000     -3.8419781E-38
   2.620000     -4.1322994E-38
   2.630000     -4.4894318E-38
   2.640000     -4.8739890E-38
   2.650000     -5.2164742E-38
   2.660000     -5.5594723E-38
   2.670000     -5.9033846E-38
   2.680000     -6.2454623E-38
   2.690000     -6.6077086E-38
   2.700000     -6.9919850E-38
   2.710000     -7.3855004E-38
   2.720000     -7.7891198E-38
   2.730000     -8.1525347E-38
   2.740000     -8.4237039E-38
   2.750000     -8.6497877E-38
   2.760000     -8.8820541E-38
   2.770000     -9.1403409E-38
   2.780000     -9.5799467E-38
   2.790000     -1.0229946E-37
   2.800000     -1.0973382E-37
   2.810000     -8.8837183E-38
   2.820000     -4.0537124E-38
   2.830000     -2.2341421E-38
   2.840000     -3.3573197E-38
   2.850000     -4.1654539E-38
   2.860000     -5.2137176E-38
   2.870000     -6.8559917E-38
   2.880000     -8.4403727E-38
   2.890000     -9.8312768E-38
   2.900000     -1.0907121E-37
   2.910000     -1.1225598E-37
   2.920000     -1.0878726E-37
   2.930000     -1.0458880E-37
   2.940000     -1.0134101E-37
   2.950000     -1.0174605E-37
   2.960000     -1.0487154E-37
   2.970000     -1.1028472E-37
   2.980000     -1.1943111E-37
   2.990000     -1.4300019E-37
   3.000000     -1.8179685E-37
   3.010000     -2.2691504E-37
   3.020000     -2.7204833E-37
   3.030000     -3.1552316E-37
   3.040000     -3.3429890E-37
   3.050000     -3.2106378E-37
   3.060000     -3.0075511E-37
   3.070000     -2.5762922E-37
   3.080000     -1.8630913E-37
   3.090000     -1.2325160E-37
   3.100000     -8.8376800E-38
   3.110000     -7.9924510E-38
   3.120000     -1.1872626E-37
   3.130000     -1.9417284E-37
   3.140000     -3.1898320E-37
   3.150000     -4.8818463E-37
   3.160000     -6.7062387E-37
   3.170000     -9.0076667E-37
   3.180000     -1.1855467E-36
   3.190000     -1.4540121E-36
   3.200000     -1.6849607E-36
   3.210000     -1.9061853E-36
   3.220000     -2.0899759E-36
   3.230000     -2.2556511E-36
   3.240000     -2.4543431E-36
   3.250000     -2.5670817E-36
   3.260000     -2.6403383E-36
   3.270000     -2.9016759E-36
   3.280000     -3.3002657E-36
   3.290000     -3.7889109E-36
   3.300000     -4.3940343E-36
   3.310000     -4.7246970E-36
   3.320000     -4.6150745E-36
   3.330000     -4.3593198E-36
   3.340000     -3.9393033E-36
   3.350000     -3.6680432E-36
   3.360000     -4.0748489E-36
   3.370000     -4.6706637E-36
   3.380000     -5.0554425E-36
   3.390000     -5.1701178E-36
   3.400000     -5.1061099E-36
   3.410000     -5.0333001E-36
   3.420000     -4.5839573E-36
   3.430000     -3.8292629E-36
   3.440000     -3.4453823E-36
   3.450000     -3.7926065E-36
   3.460000     -4.7048917E-36
   3.470000     -5.7309816E-36
   3.480000     -6.6129457E-36
   3.490000     -7.4265601E-36
   3.500000     -8.3964276E-36
   3.510000     -8.1847295E-36
   3.520000     -6.2764991E-36
   3.530000     -3.6517876E-36
   3.540000     -5.3490522E-37
   3.550000      2.5931623E-36
   3.560000      6.0651247E-36
   3.570000      9.8069275E-36
   3.580000      1.3138811E-35
   3.590000      1.5598862E-35
   3.600000      1.7527832E-35
   3.610000      1.9404766E-35
   3.620000      2.0749856E-35
   3.630000      2.1676927E-35
   3.640000      2.2188532E-35
   3.650000      2.2904407E-35
   3.660000      2.4762279E-35
   3.670000      2.7271460E-35
   3.680000      3.0152156E-35
   3.690000      3.3393883E-35
   3.700000      3.7551216E-35
   3.710000      4.2415498E-35
   3.720000      4.6974166E-35
   3.730000      5.1152986E-35
   3.740000      5.4799584E-35
   3.750000      5.7680412E-35
   3.760000      5.9565140E-35
   3.770000      6.1125127E-35
   3.780000      6.3017655E-35
   3.790000      6.5546403E-35
   3.800000      6.8784574E-35
   3.810000      7.2038444E-35
   3.820000      7.5154657E-35
   3.830000      7.8428277E-35
   3.840000      8.1964678E-35
   3.850000      8.4887245E-35
   3.860000      8.6379612E-35
   3.870000      8.6577409E-35
   3.880000      8.6189134E-35
   3.890000      8.5698400E-35
   3.900000      8.5172693E-35
   3.910000      8.4621204E-35
   3.920000      8.3576535E-35
   3.930000      8.1497264E-35
   3.940000      7.8611839E-35
   3.950000      7.4179209E-35
   3.960000      6.7595580E-35
   3.970000      5.9492096E-35
   3.980000      5.1096472E-35
   3.990000      4.2818739E-35
   4.000000      3.3313768E-35
   4.010000      2.2303404E-35
   4.020000      1.0247402E-35
   4.030000     -2.5293772E-36
   4.040000     -1.5205886E-35
   4.050000     -2.8620923E-35
   4.060000     -4.3483505E-35
   4.070000     -5.8885328E-35
   4.080000     -7.4254296E-35
   4.090000     -8.9261399E-35
   4.100000     -1.0398460E-34
   4.110000     -1.1981388E-34
   4.120000     -1.3961430E-34
   4.130000     -1.6143027E-34
   4.140000     -1.8247956E-34
   4.150000     -2.0492019E-34
   4.160000     -2.3102907E-34
   4.170000     -2.6040221E-34
   4.180000     -2.9092025E-34
   4.190000     -3.2198737E-34
   4.200000     -3.4941055E-34
   4.210000     -3.7075868E-34
   4.220000     -3.9096566E-34
   4.230000     -4.0801322E-34
   4.240000     -4.1829039E-34
   4.250000     -4.2776538E-34
   4.260000     -4.3963507E-34
   4.270000     -4.4984373E-34
   4.280000     -4.5759309E-34
   4.290000     -4.6131821E-34
   4.300000     -4.5867009E-34
   4.310000     -4.5688931E-34
   4.320000     -4.5817037E-34
   4.330000     -4.6302704E-34
   4.340000     -4.7039606E-34
   4.350000     -4.6746807E-34
   4.360000     -4.5350232E-34
   4.370000     -4.3434406E-34
   4.380000     -4.0612384E-34
   4.390000     -3.7378252E-34
   4.400000     -3.4040023E-34
   4.410000     -2.9323930E-34
   4.420000     -2.3120576E-34
   4.430000     -1.7053690E-34
   4.440000     -1.0800161E-34
   4.450000     -3.8928438E-35
   4.460000      3.2937202E-35
   4.470000      1.1685989E-34
   4.480000      2.1213187E-34
   4.490000      3.0270529E-34
   4.500000      3.8421602E-34
   4.510000      4.5887153E-34
   4.520000      5.2932745E-34
   4.530000      6.0455394E-34
   4.540000      6.8818169E-34
   4.550000      7.8588869E-34
   4.560000      9.0023150E-34
   4.570000      1.0283775E-33
   4.580000      1.1701718E-33
   4.590000      1.3283428E-33
   4.600000      1.4967099E-33
   4.610000      1.6663938E-33
   4.620000      1.8286323E-33
   4.630000      1.9789334E-33
   4.640000      2.1183699E-33
   4.650000      2.2433243E-33
   4.660000      2.3516484E-33
   4.670000      2.4447968E-33
   4.680000      2.5250333E-33
   4.690000      2.5937632E-33
   4.700000      2.6536847E-33
   4.710000      2.7063223E-33
   4.720000      2.7531968E-33
   4.730000      2.7926925E-33
   4.740000      2.8238818E-33
   4.750000      2.8468403E-33
   4.760000      2.8551169E-33
   4.770000      2.8432817E-33
   4.780000      2.8070396E-33
   4.790000      2.7407022E-33
   4.800000      2.6415720E-33
   4.810000      2.5039639E-33
   4.820000      2.3349307E-33
   4.830000      2.1281471E-33
   4.840000      1.8664946E-33
   4.850000      1.5494906E-33
   4.860000      1.1748013E-33
   4.870000      7.4068326E-34
   4.880000      2.6206618E-34
   4.890000     -2.5751865E-34
   4.900000     -8.2777265E-34
   4.910000     -1.4455343E-33
   4.920000     -2.1078680E-33
   4.930000     -2.8158536E-33
   4.940000     -3.5746489E-33
   4.950000     -4.3869805E-33
   4.960000     -5.2558667E-33
   4.970000     -6.1845410E-33
   4.980000     -7.1764173E-33
   4.990000     -8.2337245E-33
   5.000000     -9.3564986E-33
   5.010000     -1.0543473E-32
   5.020000     -1.1794210E-32
   5.030000     -1.3105996E-32
   5.040000     -1.4470882E-32
   5.050000     -1.5881275E-32
   5.060000     -1.7329639E-32
   5.070000     -1.8806706E-32
   5.080000     -2.0302887E-32
   5.090000     -2.1808193E-32
   5.100000     -2.3313728E-32
   5.110000     -2.4811009E-32
   5.120000     -2.6291674E-32
   5.130000     -2.7747418E-32
   5.140000     -2.9170221E-32
   5.150000     -3.0551254E-32
   5.160000     -3.1880565E-32
   5.170000     -3.3147336E-32
   5.180000     -3.4338529E-32
   5.190000     -3.5438998E-32
   5.200000     -3.6431553E-32
   5.210000     -3.7297016E-32
   5.220000     -3.8013342E-32
   5.230000     -3.8556758E-32
   5.240000     -3.8902815E-32
   5.250000     -3.9021616E-32
   5.260000     -3.8892133E-32
   5.270000     -3.8491527E-32
   5.280000     -3.7788408E-32
   5.290000     -3.6756168E-32
   5.300000     -3.5371977E-32
   5.310000     -3.3613340E-32
   5.320000     -3.1454504E-32
   5.330000     -2.8871490E-32
   5.340000     -2.5840540E-32
   5.350000     -2.2336351E-32
   5.360000     -1.8334465E-32
   5.370000     -1.3810232E-32
   5.380000     -8.7351852E-33
   5.390000     -3.0801085E-33
   5.400000      3.1832053E-33
   5.410000      1.0082408E-32
   5.420000      1.7644777E-32
   5.430000      2.5896132E-32
   5.440000      3.4860075E-32
   5.450000      4.4556996E-32
   5.460000      5.5003732E-32
   5.470000      6.6213222E-32
   5.480000      7.8194025E-32
   5.490000      9.0950184E-32
   5.500000      1.0448126E-31
   5.510000      1.1878249E-31
   5.520000      1.3384487E-31
   5.530000      1.4965535E-31
   5.540000      1.6619685E-31
   5.550000      1.8344815E-31
   5.560000      2.0138372E-31
   5.570000      2.1997315E-31
   5.580000      2.3918068E-31
   5.590000      2.5896425E-31
   5.600000      2.7927449E-31
   5.610000      3.0005403E-31
   5.620000      3.2123632E-31
   5.630000      3.4274495E-31
   5.640000      3.6449273E-31
   5.650000      3.8638137E-31
   5.660000      4.0830100E-31
   5.670000      4.3013036E-31
   5.680000      4.5173679E-31
   5.690000      4.7297633E-31
   5.700000      4.9369413E-31
   5.710000      5.1372489E-31
   5.720000      5.3289287E-31
   5.730000      5.5101227E-31
   5.740000      5.6788706E-31
   5.750000      5.8331067E-31
   5.760000      5.9706574E-31
   5.770000      6.0892366E-31
   5.780000      6.1864382E-31
   5.790000      6.2597355E-31
   5.800000      6.3064708E-31
   5.810000      6.3238615E-31
   5.820000      6.3090014E-31
   5.830000      6.2588562E-31
   5.840000      6.1702822E-31
   5.850000      6.0400238E-31
   5.860000      5.8647355E-31
   5.870000      5.6410051E-31
   5.880000      5.3653596E-31
   5.890000      5.0342864E-31
   5.900000      4.6442479E-31
   5.910000      4.1916991E-31
   5.920000      3.6731029E-31
   5.930000      3.0849415E-31
   5.940000      2.4237304E-31
   5.950000      1.6860320E-31
   5.960000      8.6846845E-32
   5.970000     -3.2265156E-33
   5.980000     -1.0193796E-31
   5.990000     -2.0959713E-31
   6.000000     -3.2649983E-31
   6.010000     -4.5292507E-31
   6.020000     -5.8913148E-31
   6.030000     -7.3535358E-31
   6.040000     -8.9179782E-31
   6.050000     -1.0586385E-30
   6.060000     -1.2360133E-30
   6.070000     -1.4240187E-30
   6.080000     -1.6227062E-30
   6.090000     -1.8320775E-30
   6.100000     -2.0520817E-30
   6.110000     -2.2826103E-30
   6.120000     -2.5234939E-30
   6.130000     -2.7744988E-30
   6.140000     -3.0353230E-30
   6.150000     -3.3055917E-30
   6.160000     -3.5848545E-30
   6.170000     -3.8725794E-30
   6.180000     -4.1681495E-30
   6.190000     -4.4708572E-30
   6.200000     -4.7798982E-30
   6.210000     -5.0943683E-30
   6.220000     -5.4132553E-30
   6.230000     -5.7354348E-30
   6.240000     -6.0596659E-30
   6.250000     -6.3845849E-30
   6.260000     -6.7087031E-30
   6.270000     -7.0304011E-30
   6.280000     -7.3479275E-30
   6.290000     -7.6593940E-30
   6.300000     -7.9627754E-30
   6.310000     -8.2559072E-30
   6.320000     -8.5364851E-30
   6.330000     -8.8020603E-30
   6.340000     -9.0500456E-30
   6.350000     -9.2777101E-30
   6.360000     -9.4821777E-30
   6.370000     -9.6604315E-30
   6.380000     -9.8093112E-30
   6.390000     -9.9255147E-30
   6.400000     -1.0005602E-29
   6.410000     -1.0045995E-29
   6.420000     -1.0042987E-29
   6.430000     -9.9927424E-30
   6.440000     -9.8913054E-30
   6.450000     -9.7346069E-30
   6.460000     -9.5184777E-30
   6.470000     -9.2386551E-30
   6.480000     -8.8907983E-30
   6.490000     -8.4705017E-30
   6.500000     -7.9733071E-30
   6.510000     -7.3947239E-30
   6.520000     -6.7302412E-30
   6.530000     -5.9753485E-30
   6.540000     -5.1255556E-30
   6.550000     -4.1764111E-30
   6.560000     -3.1235275E-30
   6.570000     -1.9626016E-30
   6.580000     -6.8944117E-31
   6.590000      7.0000712E-31
   6.600000      2.2096303E-30
   6.610000      3.8431187E-30
   6.620000      5.6039284E-30
   6.630000      7.4952476E-30
   6.640000      9.5199612E-30
   6.650000      1.1680612E-29
   6.660000      1.3979355E-29
   6.670000      1.6417924E-29
   6.680000      1.8997578E-29
   6.690000      2.1719066E-29
   6.700000      2.4582582E-29
   6.710000      2.7587716E-29
   6.720000      3.0733391E-29
   6.730000      3.4017848E-29
   6.740000      3.7438564E-29
   6.750000      4.0992215E-29
   6.760000      4.4674635E-29
   6.770000      4.8480751E-29
   6.780000      5.2404530E-29
   6.790000      5.6438920E-29
   6.800000      6.0575811E-29
   6.810000      6.4805990E-29
   6.820000      6.9119056E-29
   6.830000      7.3503399E-29
   6.840000      7.7946116E-29
   6.850000      8.2432997E-29
   6.860000      8.6948467E-29
   6.870000      9.1475515E-29
   6.880000      9.5995679E-29
   6.890000      1.0048900E-28
   6.900000      1.0493396E-28
   6.910000      1.0930748E-28
   6.920000      1.1358487E-28
   6.930000      1.1773986E-28
   6.940000      1.2174447E-28
   6.950000      1.2556909E-28
   6.960000      1.2918243E-28
   6.970000      1.3255149E-28
   6.980000      1.3564166E-28
   6.990000      1.3841660E-28
   7.000000      1.4083831E-28
   7.010000      1.4286720E-28
   7.020000      1.4446207E-28
   7.030000      1.4558013E-28
   7.040000      1.4617718E-28
   7.050000      1.4620750E-28
   7.060000      1.4562403E-28