  -2.600000      0.0000000E+00
  -2.590000      0.0000000E+00
  -2.580000      0.0000000E+00
  -2.570000      0.0000000E+00
  -2.560000      0.0000000E+00
  -2.550000      0.0000000E+00
  -2.540000      0.0000000E+00
  -2.530000      0.0000000E+00
  -2.520000      0.0000000E+00
  -2.510000      0.0000000E+00
  -2.500000      0.0000000E+00
  -2.490000      0.0000000E+00
  -2.480000      0.0000000E+00
  -2.470000      0.0000000E+00
  -2.460000      0.0000000E+00
  -2.450000      0.0000000E+00
  -2.440000      0.0000000E+00
  -2.430000      0.0000000E+00
  -2.420000      0.0000000E+00
  -2.410000      0.0000000E+00
  -2.400000      0.0000000E+00
  -2.390000      0.0000000E+00
  -2.380000      0.0000000E+00
  -2.370000      0.0000000E+00
  -2.360000      0.0000000E+00
  -2.350000      0.0000000E+00
  -2.340000      0.0000000E+00
  -2.330000      0.0000000E+00
  -2.320000      0.0000000E+00
  -2.310000      0.0000000E+00
  -2.300000      0.0000000E+00
  -2.290000      0.0000000E+00
  -2.280000      0.0000000E+00
  -2.270000      0.0000000E+00
  -2.260000      0.0000000E+00
  -2.250000      0.0000000E+00
  -2.240000      0.0000000E+00
  -2.230000      0.0000000E+00
  -2.220000      0.0000000E+00
  -2.210000      0.0000000E+00
  -2.200000      0.0000000E+00
  -2.190000      0.0000000E+00
  -2.180000      0.0000000E+00
  -2.170000      0.0000000E+00
  -2.160000      0.0000000E+00
  -2.150000      0.0000000E+00
  -2.140000      0.0000000E+00
  -2.130000      0.0000000E+00
  -2.120000      0.0000000E+00
  -2.110000      0.0000000E+00
  -2.100000      0.0000000E+00
  -2.090000      0.0000000E+00
  -2.080000      0.0000000E+00
  -2.070000      0.0000000E+00
  -2.060000      0.0000000E+00
  -2.050000      0.0000000E+00
  -2.040000      0.0000000E+00
  -2.030000      0.0000000E+00
  -2.020000      0.0000000E+00
  -2.010000      0.0000000E+00
  -2.000000      0.0000000E+00
  -1.990000      0.0000000E+00
  -1.980000      0.0000000E+00
  -1.970000      0.0000000E+00
  -1.960000      0.0000000E+00
  -1.950000      0.0000000E+00
  -1.940000      0.0000000E+00
  -1.930000      0.0000000E+00
  -1.920000      0.0000000E+00
  -1.910000      0.0000000E+00
  -1.900000      0.0000000E+00
  -1.890000      0.0000000E+00
  -1.880000      0.0000000E+00
  -1.870000      0.0000000E+00
  -1.860000      0.0000000E+00
  -1.850000      0.0000000E+00
  -1.840000      0.0000000E+00
  -1.830000      0.0000000E+00
  -1.820000      0.0000000E+00
  -1.810000      0.0000000E+00
  -1.800000      0.0000000E+00
  -1.790000      0.0000000E+00
  -1.780000      0.0000000E+00
  -1.770000      0.0000000E+00
  -1.760000      0.0000000E+00
  -1.750000      0.0000000E+00
  -1.740000      0.0000000E+00
  -1.730000      0.0000000E+00
  -1.720000      0.0000000E+00
  -1.710000      0.0000000E+00
  -1.700000      0.0000000E+00
  -1.690000      0.0000000E+00
  -1.680000      0.0000000E+00
  -1.670000      0.0000000E+00
  -1.660000      0.0000000E+00
  -1.650000      0.0000000E+00
  -1.640000      0.0000000E+00
  -1.630000      0.0000000E+00
  -1.620000      0.0000000E+00
  -1.610000      0.0000000E+00
  -1.600000      0.0000000E+00
  -1.590000      0.0000000E+00
  -1.580000      0.0000000E+00
  -1.570000      0.0000000E+00
  -1.560000      0.0000000E+00
  -1.550000      0.0000000E+00
  -1.540000      0.0000000E+00
  -1.530000      0.0000000E+00
  -1.520000      0.0000000E+00
  -1.510000      0.0000000E+00
  -1.500000      0.0000000E+00
  -1.490000      0.0000000E+00
  -1.480000      0.0000000E+00
  -1.470000      0.0000000E+00
  -1.460000      0.0000000E+00
  -1.450000      0.0000000E+00
  -1.440000      0.0000000E+00
  -1.430000      0.0000000E+00
  -1.420000      0.0000000E+00
  -1.410000      0.0000000E+00
  -1.400000      0.0000000E+00
  -1.390000      0.0000000E+00
  -1.380000      0.0000000E+00
  -1.370000      0.0000000E+00
  -1.360000      0.0000000E+00
  -1.350000      0.0000000E+00
  -1.340000      0.0000000E+00
  -1.330000      0.0000000E+00
  -1.320000      0.0000000E+00
  -1.310000      0.0000000E+00
  -1.300000      0.0000000E+00
  -1.290000      0.0000000E+00
  -1.280000      0.0000000E+00
  -1.270000      0.0000000E+00
  -1.260000      0.0000000E+00
  -1.250000      0.0000000E+00
  -1.240000      0.0000000E+00
  -1.230000      0.0000000E+00
  -1.220000      0.0000000E+00
  -1.210000      0.0000000E+00
  -1.200000      0.0000000E+00
  -1.190000      0.0000000E+00
  -1.180000      0.0000000E+00
  -1.170000      0.0000000E+00
  -1.160000      0.0000000E+00
  -1.150000      0.0000000E+00
  -1.140000      0.0000000E+00
  -1.130000      0.0000000E+00
  -1.120000      0.0000000E+00
  -1.110000      0.0000000E+00
  -1.100000      0.0000000E+00
  -1.090000      0.0000000E+00
  -1.080000      0.0000000E+00
  -1.070000      0.0000000E+00
  -1.060000      0.0000000E+00
  -1.050000      0.0000000E+00
  -1.040000      0.0000000E+00
  -1.030000      0.0000000E+00
  -1.020000      0.0000000E+00
  -1.010000      0.0000000E+00
  -1.000000      0.0000000E+00
 -0.9900000      0.0000000E+00
 -0.9800000      0.0000000E+00
 -0.9700000      0.0000000E+00
 -0.9600000      0.0000000E+00
 -0.9500000      0.0000000E+00
 -0.9400000      0.0000000E+00
 -0.9300000      0.0000000E+00
 -0.9200000      0.0000000E+00
 -0.9100000      0.0000000E+00
 -0.9000000      0.0000000E+00
 -0.8900000      0.0000000E+00
 -0.8800000      0.0000000E+00
 -0.8700000      0.0000000E+00
 -0.8600000      0.0000000E+00
 -0.8500000      0.0000000E+00
 -0.8400000      0.0000000E+00
 -0.8300000      0.0000000E+00
 -0.8200000      0.0000000E+00
 -0.8100000      0.0000000E+00
 -0.8000000      0.0000000E+00
 -0.7900000      0.0000000E+00
 -0.7800000      0.0000000E+00
 -0.7700000      0.0000000E+00
 -0.7600000      0.0000000E+00
 -0.7500000      0.0000000E+00
 -0.7400000      0.0000000E+00
 -0.7300000      0.0000000E+00
 -0.7200000      0.0000000E+00
 -0.7100000      0.0000000E+00
 -0.7000000      0.0000000E+00
 -0.6900000      0.0000000E+00
 -0.6800000      0.0000000E+00
 -0.6700000      0.0000000E+00
 -0.6600000      0.0000000E+00
 -0.6500000      0.0000000E+00
 -0.6400000      0.0000000E+00
 -0.6300000      0.0000000E+00
 -0.6200000      0.0000000E+00
 -0.6100000      0.0000000E+00
 -0.6000000      0.0000000E+00
 -0.5900000      0.0000000E+00
 -0.5800000      0.0000000E+00
 -0.5700000      0.0000000E+00
 -0.5600000      0.0000000E+00
 -0.5500000      0.0000000E+00
 -0.5400000      0.0000000E+00
 -0.5300000      0.0000000E+00
 -0.5200000      0.0000000E+00
 -0.5100000      0.0000000E+00
 -0.5000000      0.0000000E+00
 -0.4900000      0.0000000E+00
 -0.4800000      0.0000000E+00
 -0.4700000      0.0000000E+00
 -0.4600000      0.0000000E+00
 -0.4500000      0.0000000E+00
 -0.4400000      0.0000000E+00
 -0.4300000      0.0000000E+00
 -0.4200000      0.0000000E+00
 -0.4100000      0.0000000E+00
 -0.4000000      0.0000000E+00
 -0.3900000      0.0000000E+00
 -0.3800000      0.0000000E+00
 -0.3700000      0.0000000E+00
 -0.3600000      0.0000000E+00
 -0.3500000      0.0000000E+00
 -0.3400000      0.0000000E+00
 -0.3300000      0.0000000E+00
 -0.3200000      0.0000000E+00
 -0.3100000      0.0000000E+00
 -0.3000000      0.0000000E+00
 -0.2900000      0.0000000E+00
 -0.2800000      0.0000000E+00
 -0.2700000      0.0000000E+00
 -0.2600000      0.0000000E+00
 -0.2500000      0.0000000E+00
 -0.2400000      0.0000000E+00
 -0.2300000      0.0000000E+00
 -0.2200000      0.0000000E+00
 -0.2100000      0.0000000E+00
 -0.2000000      0.0000000E+00
 -0.1900000      0.0000000E+00
 -0.1800000      0.0000000E+00
 -0.1700000      0.0000000E+00
 -0.1600000      0.0000000E+00
 -0.1500000      0.0000000E+00
 -0.1400000      0.0000000E+00
 -0.1300000      0.0000000E+00
 -0.1200000      0.0000000E+00
 -0.1100000      0.0000000E+00
 -0.1000000      0.0000000E+00
 -9.0000004E-02  0.0000000E+00
 -7.9999998E-02  0.0000000E+00
 -7.0000000E-02  0.0000000E+00
 -5.9999999E-02  0.0000000E+00
 -5.0000001E-02  0.0000000E+00
 -3.9999999E-02  0.0000000E+00
 -2.9999999E-02  0.0000000E+00
 -2.0000000E-02  0.0000000E+00
 -9.9999998E-03  0.0000000E+00
 -3.4694470E-17  0.0000000E+00
  9.9999998E-03  0.0000000E+00
  2.0000000E-02  0.0000000E+00
  2.9999999E-02  0.0000000E+00
  3.9999999E-02  0.0000000E+00
  5.0000001E-02  0.0000000E+00
  5.9999999E-02  0.0000000E+00
  7.0000000E-02  0.0000000E+00
  7.9999998E-02  0.0000000E+00
  9.0000004E-02  0.0000000E+00
  0.1000000      0.0000000E+00
  0.1100000      0.0000000E+00
  0.1200000      0.0000000E+00
  0.1300000      0.0000000E+00
  0.1400000      0.0000000E+00
  0.1500000      0.0000000E+00
  0.1600000      0.0000000E+00
  0.1700000      0.0000000E+00
  0.1800000      0.0000000E+00
  0.1900000      0.0000000E+00
  0.2000000      0.0000000E+00
  0.2100000      0.0000000E+00
  0.2200000      0.0000000E+00
  0.2300000      0.0000000E+00
  0.2400000      0.0000000E+00
  0.2500000      0.0000000E+00
  0.2600000      0.0000000E+00
  0.2700000      0.0000000E+00
  0.2800000      0.0000000E+00
  0.2900000      0.0000000E+00
  0.3000000      0.0000000E+00
  0.3100000      0.0000000E+00
  0.3200000      0.0000000E+00
  0.3300000      0.0000000E+00
  0.3400000      0.0000000E+00
  0.3500000      0.0000000E+00
  0.3600000      0.0000000E+00
  0.3700000      0.0000000E+00
  0.3800000      0.0000000E+00
  0.3900000      0.0000000E+00
  0.4000000      0.0000000E+00
  0.4100000      0.0000000E+00
  0.4200000      0.0000000E+00
  0.4300000      0.0000000E+00
  0.4400000      0.0000000E+00
  0.4500000      0.0000000E+00
  0.4600000      0.0000000E+00
  0.4700000      0.0000000E+00
  0.4800000      0.0000000E+00
  0.4900000      0.0000000E+00
  0.5000000      0.0000000E+00
  0.5100000      0.0000000E+00
  0.5200000      0.0000000E+00
  0.5300000      0.0000000E+00
  0.5400000      0.0000000E+00
  0.5500000      0.0000000E+00
  0.5600000      0.0000000E+00
  0.5700000      0.0000000E+00
  0.5800000      0.0000000E+00
  0.5900000      0.0000000E+00
  0.6000000      0.0000000E+00
  0.6100000      0.0000000E+00
  0.6200000      0.0000000E+00
  0.6300000      0.0000000E+00
  0.6400000      0.0000000E+00
  0.6500000      0.0000000E+00
  0.6600000      0.0000000E+00
  0.6700000      0.0000000E+00
  0.6800000      0.0000000E+00
  0.6900000      0.0000000E+00
  0.7000000      0.0000000E+00
  0.7100000      0.0000000E+00
  0.7200000      0.0000000E+00
  0.7300000      0.0000000E+00
  0.7400000      0.0000000E+00
  0.7500000      0.0000000E+00
  0.7600000      0.0000000E+00
  0.7700000      0.0000000E+00
  0.7800000      0.0000000E+00
  0.7900000      0.0000000E+00
  0.8000000      0.0000000E+00
  0.8100000      0.0000000E+00
  0.8200000      2.1791046E-38
  0.8300000      3.7316682E-38
  0.8400000      5.2289576E-38
  0.8500000      6.5732299E-38
  0.8600000      7.5461228E-38
  0.8700000      7.9534304E-38
  0.8800000      7.8807938E-38
  0.8900000      7.4071830E-38
  0.9000000      6.2046424E-38
  0.9100000      4.1223712E-38
  0.9200000      1.3617705E-38
  0.9300000     -2.0055005E-38
  0.9400000     -5.7770951E-38
  0.9500000     -9.9718955E-38
  0.9600000     -1.4546487E-37
  0.9700000     -1.9299319E-37
  0.9800000     -2.4029668E-37
  0.9900000     -2.8602777E-37
   1.000000     -3.2677081E-37
   1.010000     -3.6332068E-37
   1.020000     -4.0650534E-37
   1.030000     -4.5783654E-37
   1.040000     -5.1400193E-37
   1.050000     -5.8803923E-37
   1.060000     -6.7897852E-37
   1.070000     -7.4718508E-37
   1.080000     -7.8772525E-37
   1.090000     -8.1880295E-37
   1.100000     -7.8049123E-37
   1.110000     -6.7003501E-37
   1.120000     -5.4463646E-37
   1.130000     -3.9834041E-37
   1.140000     -2.3355273E-37
   1.150000     -6.8671192E-38
   1.160000      9.9610853E-38
   1.170000      2.7568823E-37
   1.180000      4.6065676E-37
   1.190000      6.4998052E-37
   1.200000      7.0891573E-37
   1.210000      6.2001498E-37
   1.220000      4.5230784E-37
   1.230000      1.8955799E-37
   1.240000     -1.0365150E-37
   1.250000     -2.9719585E-37
   1.260000     -3.3016942E-37
   1.270000     -3.3544789E-37
   1.280000     -4.0803825E-37
   1.290000     -1.6256365E-37
   1.300000      4.5038643E-37
   1.310000      1.1161155E-36
   1.320000      1.8648780E-36
   1.330000      2.6630167E-36
   1.340000      3.5043934E-36
   1.350000      4.3812739E-36
   1.360000      5.1611420E-36
   1.370000      5.6991351E-36
   1.380000      6.0131565E-36
   1.390000      6.2127667E-36
   1.400000      6.2274418E-36
   1.410000      6.1439504E-36
   1.420000      5.7536086E-36
   1.430000      5.0610990E-36
   1.440000      4.4765855E-36
   1.450000      3.9124375E-36
   1.460000      3.2650679E-36
   1.470000      2.4924862E-36
   1.480000      1.6761921E-36
   1.490000      9.5951664E-37
   1.500000      4.5477018E-37
   1.510000     -1.0888579E-37
   1.520000     -1.4515367E-36
   1.530000     -3.5030582E-36
   1.540000     -5.8435353E-36
   1.550000     -8.5785761E-36
   1.560000     -1.0911310E-35
   1.570000     -1.2330452E-35
   1.580000     -1.3393198E-35
   1.590000     -1.4355152E-35
   1.600000     -1.5241084E-35
   1.610000     -1.6106454E-35
   1.620000     -1.7783063E-35
   1.630000     -1.9523080E-35
   1.640000     -2.0658426E-35
   1.650000     -2.2106197E-35
   1.660000     -2.2884601E-35
   1.670000     -2.2585924E-35
   1.680000     -2.2093721E-35
   1.690000     -2.1324324E-35
   1.700000     -2.1002000E-35
   1.710000     -2.0680547E-35
   1.720000     -1.4719580E-35
   1.730000     -2.4783959E-36
   1.740000      9.4080228E-36
   1.750000      1.4732962E-35
   1.760000      1.5828961E-35
   1.770000      1.9226342E-35
   1.780000      2.1036371E-35
   1.790000      1.8085560E-35
   1.800000      1.2862477E-35
   1.810000      5.8697343E-36
   1.820000      7.9373269E-36
   1.830000      2.2305416E-35
   1.840000      3.6056260E-35
   1.850000      4.9137776E-35
   1.860000      6.5812439E-35
   1.870000      8.4301094E-35
   1.880000      1.1196810E-34
   1.890000      1.4817052E-34
   1.900000      1.8195345E-34
   1.910000      2.1216064E-34
   1.920000      2.2876920E-34
   1.930000      2.3130317E-34
   1.940000      2.3030049E-34
   1.950000      2.1911366E-34
   1.960000      1.9312504E-34
   1.970000      1.6159677E-34
   1.980000      1.2910994E-34
   1.990000      1.0088522E-34
   2.000000      7.9207783E-35
   2.010000      6.0942207E-35
   2.020000      4.7996597E-35
   2.030000      4.9269807E-35
   2.040000      6.1722132E-35
   2.050000      5.4839021E-35
   2.060000      3.3089506E-35
   2.070000      2.2348927E-35
   2.080000      9.6903336E-37
   2.090000     -4.6594398E-35
   2.100000     -1.1403964E-34
   2.110000     -2.0427394E-34
   2.120000     -3.1434374E-34
   2.130000     -4.4098873E-34
   2.140000     -5.8659611E-34
   2.150000     -7.4544865E-34
   2.160000     -9.0770746E-34
   2.170000     -1.0682591E-33
   2.180000     -1.2243453E-33
   2.190000     -1.3738843E-33
   2.200000     -1.5121308E-33
   2.210000     -1.6378701E-33
   2.220000     -1.7537639E-33
   2.230000     -1.8616800E-33
   2.240000     -1.9627420E-33
   2.250000     -2.0583558E-33
   2.260000     -2.1534076E-33
   2.270000     -2.2551472E-33
   2.280000     -2.3550285E-33
   2.290000     -2.4481881E-33
   2.300000     -2.5372127E-33
   2.310000     -2.6127757E-33
   2.320000     -2.6667052E-33
   2.330000     -2.6948022E-33
   2.340000     -2.6842395E-33
   2.350000     -2.6194964E-33
   2.360000     -2.4934661E-33
   2.370000     -2.3132434E-33
   2.380000     -2.0805102E-33
   2.390000     -1.7877813E-33
   2.400000     -1.4349445E-33
   2.410000     -1.0236730E-33
   2.420000     -5.5739857E-34
   2.430000     -3.9066080E-35
   2.440000      5.2840648E-34
   2.450000      1.1428507E-33
   2.460000      1.8041456E-33
   2.470000      2.5115846E-33
   2.480000      3.2650458E-33
   2.490000      4.0683749E-33
   2.500000      4.9243222E-33
   2.510000      5.8331336E-33
   2.520000      6.7966341E-33
   2.530000      7.8149965E-33
   2.540000      8.8842812E-33
   2.550000      9.9989761E-33
   2.560000      1.1150971E-32
   2.570000      1.2329475E-32
   2.580000      1.3521847E-32
   2.590000      1.4714114E-32
   2.600000      1.5890485E-32
   2.610000      1.7034923E-32
   2.620000      1.8132297E-32
   2.630000      1.9167683E-32
   2.640000      2.0126697E-32
   2.650000      2.0996285E-32
   2.660000      2.1764110E-32
   2.670000      2.2417266E-32
   2.680000      2.2943142E-32
   2.690000      2.3328685E-32
   2.700000      2.3558871E-32
   2.710000      2.3617252E-32
   2.720000      2.3485907E-32
   2.730000      2.3144997E-32
   2.740000      2.2573193E-32
   2.750000      2.1748166E-32
   2.760000      2.0647322E-32
   2.770000      1.9248382E-32
   2.780000      1.7530310E-32
   2.790000      1.5474158E-32
   2.800000      1.3063552E-32
   2.810000      1.0285219E-32
   2.820000      7.1292594E-33
   2.830000      3.5892074E-33
   2.840000     -3.3811024E-34
   2.850000     -4.6528182E-33
   2.860000     -9.3523146E-33
   2.870000     -1.4431576E-32
   2.880000     -1.9883422E-32
   2.890000     -2.5698593E-32
   2.900000     -3.1862480E-32
   2.910000     -3.8364683E-32
   2.920000     -4.5191860E-32
   2.930000     -5.2320401E-32
   2.940000     -5.9725534E-32
   2.950000     -6.7377438E-32
   2.960000     -7.5240596E-32
   2.970000     -8.3273160E-32
   2.980000     -9.1426677E-32
   2.990000     -9.9645963E-32
   3.000000     -1.0786907E-31
   3.010000     -1.1602766E-31
   3.020000     -1.2404743E-31
   3.030000     -1.3184863E-31
   3.040000     -1.3934678E-31
   3.050000     -1.4645323E-31
   3.060000     -1.5307578E-31
   3.070000     -1.5911903E-31
   3.080000     -1.6448470E-31
   3.090000     -1.6907190E-31
   3.100000     -1.7277715E-31
   3.110000     -1.7549442E-31
   3.120000     -1.7711528E-31
   3.130000     -1.7752901E-31
   3.140000     -1.7662287E-31
   3.150000     -1.7428259E-31
   3.160000     -1.7039315E-31
   3.170000     -1.6483970E-31
   3.180000     -1.5750879E-31
   3.190000     -1.4828971E-31
   3.200000     -1.3707609E-31
   3.210000     -1.2376746E-31
   3.220000     -1.0827091E-31
   3.230000     -9.0502621E-32
   3.240000     -7.0389413E-32
   3.250000     -4.7870009E-32
   3.260000     -2.2896255E-32
   3.270000      4.5657325E-33
   3.280000      3.4534610E-32
   3.290000      6.7012917E-32
   3.300000      1.0198620E-31
   3.310000      1.3942189E-31
   3.320000      1.7926837E-31
   3.330000      2.2145373E-31
   3.340000      2.6588457E-31
   3.350000      3.1244447E-31
   3.360000      3.6099260E-31
   3.370000      4.1136213E-31
   3.380000      4.6335895E-31
   3.390000      5.1676015E-31
   3.400000      5.7131282E-31
   3.410000      6.2673329E-31
   3.420000      6.8270638E-31
   3.430000      7.3888505E-31
   3.440000      7.9489025E-31
   3.450000      8.5031124E-31
   3.460000      9.0470587E-31
   3.470000      9.5760143E-31
   3.480000      1.0084956E-30
   3.490000      1.0568573E-30
   3.500000      1.1021277E-30
   3.510000      1.1437221E-30
   3.520000      1.1810307E-30
   3.530000      1.2134212E-30
   3.540000      1.2402392E-30
   3.550000      1.2608114E-30
   3.560000      1.2744482E-30
   3.570000      1.2804455E-30
   3.580000      1.2780887E-30
   3.590000      1.2666561E-30
   3.600000      1.2454232E-30
   3.610000      1.2136671E-30
   3.620000      1.1706719E-30
   3.630000      1.1157342E-30
   3.640000      1.0481684E-30
   3.650000      9.6731336E-31
   3.660000      8.7253842E-31
   3.670000      7.6325050E-31
   3.680000      6.3890055E-31
   3.690000      4.9899068E-31
   3.700000      3.4308100E-31
   3.710000      1.7079686E-31
   3.720000     -1.8164137E-32
   3.730000     -2.2402372E-31
   3.740000     -4.4691571E-31
   3.750000     -6.8687887E-31
   3.760000     -9.4384786E-31
   3.770000     -1.2176456E-30
   3.780000     -1.5079754E-30
   3.790000     -1.8144124E-30
   3.800000     -2.1363952E-30
   3.810000     -2.4732177E-30
   3.820000     -2.8240221E-30
   3.830000     -3.1877910E-30
   3.840000     -3.5633383E-30
   3.850000     -3.9493063E-30
   3.860000     -4.3441554E-30
   3.870000     -4.7461613E-30
   3.880000     -5.1534075E-30
   3.890000     -5.5637833E-30
   3.900000     -5.9749791E-30
   3.910000     -6.3844848E-30
   3.920000     -6.7895877E-30
   3.930000     -7.1873712E-30
   3.940000     -7.5747141E-30
   3.950000     -7.9482948E-30
   3.960000     -8.3045911E-30
   3.970000     -8.6398842E-30
   3.980000     -8.9502644E-30
   3.990000     -9.2316390E-30
   4.000000     -9.4797386E-30
   4.010000     -9.6901277E-30
   4.020000     -9.8582147E-30
   4.030000     -9.9792677E-30
   4.040000     -1.0048427E-29
   4.050000     -1.0060725E-29
   4.060000     -1.0011103E-29
   4.070000     -9.8944327E-30
   4.080000     -9.7055442E-30
   4.090000     -9.4392407E-30
   4.100000     -9.0903352E-30
   4.110000     -8.6536764E-30
   4.120000     -8.1241811E-30
   4.130000     -7.4968651E-30
   4.140000     -6.7668820E-30
   4.150000     -5.9295565E-30
   4.160000     -4.9804266E-30
   4.170000     -3.9152854E-30
   4.180000     -2.7302227E-30
   4.190000     -1.4216736E-30
   4.200000      1.3538609E-32
   4.210000      1.5781518E-30
   4.220000      3.2744108E-30
   4.230000      5.1040175E-30
   4.240000      7.0680824E-30
   4.250000      9.1670609E-30
   4.260000      1.1400700E-29
   4.270000      1.3767984E-29
   4.280000      1.6267075E-29
   4.290000      1.8895252E-29
   4.300000      2.1648856E-29
   4.310000      2.4523229E-29
   4.320000      2.7512656E-29
   4.330000      3.0610315E-29
   4.340000      3.3808214E-29
   4.350000      3.7097136E-29
   4.360000      4.0466593E-29
   4.370000      4.3904769E-29
   4.380000      4.7398478E-29
   4.390000      5.0933113E-29
   4.400000      5.4492611E-29
   4.410000      5.8059403E-29
   4.420000      6.1614405E-29
   4.430000      6.5136967E-29
   4.440000      6.8604839E-29
   4.450000      7.1994192E-29
   4.460000      7.5279600E-29
   4.470000      7.8433984E-29
   4.480000      8.1428673E-29
   4.490000      8.4233387E-29
   4.500000      8.6816276E-29
   4.510000      8.9143906E-29
   4.520000      9.1181366E-29
   4.530000      9.2892254E-29
   4.540000      9.4238767E-29
   4.550000      9.5181751E-29
   4.560000      9.5680820E-29
   4.570000      9.5694403E-29
   4.580000      9.5179909E-29
   4.590000      9.4093793E-29
   4.600000      9.2391722E-29
   4.610000      9.0028733E-29
   4.620000      8.6959366E-29
   4.630000      8.3137882E-29
   4.640000      7.8518418E-29
   4.650000      7.3055253E-29
   4.660000      6.6702989E-29
   4.670000      5.9416805E-29
   4.680000      5.1152778E-29
   4.690000      4.1868086E-29
   4.700000      3.1521361E-29
   4.710000      2.0072964E-29
   4.720000      7.4853532E-30
   4.730000     -6.2765459E-30
   4.740000     -2.1244992E-29
   4.750000     -3.7449082E-29
   4.760000     -5.4914299E-29
   4.770000     -7.3662108E-29
   4.780000     -9.3709582E-29
   4.790000     -1.1506890E-28
   4.800000     -1.3774682E-28
   4.810000     -1.6174432E-28
   4.820000     -1.8705605E-28
   4.830000     -2.1366989E-28
   4.840000     -2.4156643E-28
   4.850000     -2.7071837E-28
   4.860000     -3.0109011E-28
   4.870000     -3.3263723E-28
   4.880000     -3.6530589E-28
   4.890000     -3.9903229E-28
   4.900000     -4.3374229E-28
   4.910000     -4.6935062E-28
   4.920000     -5.0576076E-28
   4.930000     -5.4286404E-28
   4.940000     -5.8053937E-28
   4.950000     -6.1865266E-28
   4.960000     -6.5705652E-28
   4.970000     -6.9558971E-28
   4.980000     -7.3407662E-28
   4.990000     -7.7232718E-28
   5.000000     -8.1013627E-28
   5.010000     -8.4728341E-28
   5.020000     -8.8353278E-28
   5.030000     -9.1863257E-28
   5.040000     -9.5231535E-28
   5.050000     -9.8429734E-28
   5.060000     -1.0142790E-27
   5.070000     -1.0419444E-27
   5.080000     -1.0669619E-27
   5.090000     -1.0889842E-27
   5.100000     -1.1076481E-27
   5.110000     -1.1225757E-27
   5.120000     -1.1333743E-27
   5.130000     -1.1396368E-27
   5.140000     -1.1409427E-27
   5.150000     -1.1368586E-27
   5.160000     -1.1269395E-27
   5.170000     -1.1107291E-27
   5.180000     -1.0877616E-27
   5.190000     -1.0575626E-27
   5.200000     -1.0196506E-27
   5.210000     -9.7353833E-28
   5.220000     -9.1873493E-28
   5.230000     -8.5474745E-28
   5.240000     -7.8108299E-28
   5.250000     -6.9725073E-28
   5.260000     -6.0276431E-28
   5.270000     -4.9714434E-28
   5.280000     -3.7992107E-28
   5.290000     -2.5063754E-28
   5.300000     -1.0885209E-28
   5.310000      4.5858595E-29
   5.320000      2.1389571E-28
   5.330000      3.9563416E-28
   5.340000      5.9141991E-28
   5.350000      8.0156564E-28
   5.360000      1.0263467E-27
   5.370000      1.2659966E-27
   5.380000      1.5207030E-27
   5.390000      1.7906024E-27
   5.400000      2.0757767E-27
   5.410000      2.3762474E-27
   5.420000      2.6919695E-27
   5.430000      3.0228285E-27
   5.440000      3.3686344E-27
   5.450000      3.7291161E-27
   5.460000      4.1039164E-27
   5.470000      4.4925852E-27
   5.480000      4.8945761E-27
   5.490000      5.3092392E-27
   5.500000      5.7358150E-27
   5.510000      6.1734309E-27
   5.520000      6.6210952E-27
   5.530000      7.0776893E-27
   5.540000      7.5419640E-27
   5.550000      8.0125357E-27
   5.560000      8.4878791E-27
   5.570000      8.9663225E-27
   5.580000      9.4460454E-27
   5.590000      9.9250681E-27
   5.600000      1.0401254E-26
   5.610000      1.0872306E-26
   5.620000      1.1335756E-26
   5.630000      1.1788967E-26
   5.640000      1.2229131E-26
   5.650000      1.2653265E-26
   5.660000      1.3058210E-26
   5.670000      1.3440634E-26
   5.680000      1.3797020E-26
   5.690000      1.4123684E-26
   5.700000      1.4416761E-26
   5.710000      1.4672218E-26
   5.720000      1.4885847E-26
   5.730000      1.5053275E-26
   5.740000      1.5169971E-26
   5.750000      1.5231245E-26
   5.760000      1.5232263E-26
   5.770000      1.5168050E-26
   5.780000      1.5033498E-26
   5.790000      1.4823385E-26
   5.800000      1.4532374E-26
   5.810000      1.4155040E-26
   5.820000      1.3685875E-26
   5.830000      1.3119310E-26
   5.840000      1.2449733E-26
   5.850000      1.1671510E-26
   5.860000      1.0778997E-26
   5.870000      9.7665726E-27
   5.880000      8.6286607E-27
   5.890000      7.3597556E-27
   5.900000      5.9544477E-27
   5.910000      4.4074525E-27
   5.920000      2.7136553E-27
   5.930000      8.6812717E-28
   5.940000     -1.1338403E-27
   5.950000     -3.2966828E-27
   5.960000     -5.6245305E-27
   5.970000     -8.1211713E-27
   5.980000     -1.0790014E-26
   5.990000     -1.3634031E-26
   6.000000     -1.6655716E-26
   6.010000     -1.9857048E-26
   6.020000     -2.3239432E-26
   6.030000     -2.6803645E-26
   6.040000     -3.0549785E-26
   6.050000     -3.4477231E-26
   6.060000     -3.8584580E-26
   6.070000     -4.2869586E-26
   6.080000     -4.7329121E-26
   6.090000     -5.1959112E-26
   6.100000     -5.6754481E-26
   6.110000     -6.1709082E-26
   6.120000     -6.6815668E-26
   6.130000     -7.2065821E-26
   6.140000     -7.7449877E-26
   6.150000     -8.2956884E-26
   6.160000     -8.8574547E-26
   6.170000     -9.4289173E-26
   6.180000     -1.0008562E-25
   6.190000     -1.0594725E-25
   6.200000     -1.1185587E-25
   6.210000     -1.1779165E-25
   6.220000     -1.2373319E-25
   6.230000     -1.2965735E-25
   6.240000     -1.3553932E-25
   6.250000     -1.4135252E-25
   6.260000     -1.4706857E-25
   6.270000     -1.5265731E-25
   6.280000     -1.5808675E-25
   6.290000     -1.6332309E-25
   6.300000     -1.6833067E-25
   6.310000     -1.7307198E-25
   6.320000     -1.7750769E-25
   6.330000     -1.8159664E-25
   6.340000     -1.8529588E-25
   6.350000     -1.8856074E-25
   6.360000     -1.9134478E-25
   6.370000     -1.9359990E-25
   6.380000     -1.9527639E-25
   6.390000     -1.9632301E-25
   6.400000     -1.9668705E-25
   6.410000     -1.9631443E-25
   6.420000     -1.9514989E-25
   6.430000     -1.9313696E-25
   6.440000     -1.9021824E-25
   6.450000     -1.8633538E-25
   6.460000     -1.8142938E-25
   6.470000     -1.7544074E-25
   6.480000     -1.6830964E-25
   6.490000     -1.5997606E-25
   6.500000     -1.5038011E-25
   6.510000     -1.3946228E-25
   6.520000     -1.2716355E-25
   6.530000     -1.1342586E-25
   6.540000     -9.8192241E-26
   6.550000     -8.1407050E-26
   6.560000     -6.3016446E-26
   6.570000     -4.2968720E-26
   6.580000     -2.1214579E-26
   6.590000      2.2925425E-27
   6.600000      2.7596157E-26
   6.610000      5.4736149E-26
   6.620000      8.3748432E-26
   6.630000      1.1466457E-25
   6.640000      1.4751121E-25
   6.650000      1.8230985E-25
   6.660000      2.1907619E-25
   6.670000      2.5781969E-25
   6.680000      2.9854320E-25
   6.690000      3.4124237E-25
   6.700000      3.8590523E-25
   6.710000      4.3251168E-25
   6.720000      4.8103288E-25
   6.730000      5.3143074E-25
   6.740000      5.8365753E-25
   6.750000      6.3765515E-25
   6.760000      6.9335490E-25
   6.770000      7.5067668E-25
   6.780000      8.0952872E-25
   6.790000      8.6980681E-25
   6.800000      9.3139427E-25
   6.810000      9.9416097E-25
   6.820000      1.0579629E-24
   6.830000      1.1226422E-24
   6.840000      1.1880263E-24
   6.850000      1.2539279E-24
   6.860000      1.3201440E-24
   6.870000      1.3864563E-24
   6.880000      1.4526302E-24
   6.890000      1.5184151E-24
   6.900000      1.5835440E-24
   6.910000      1.6477326E-24
   6.920000      1.7106806E-24
   6.930000      1.7720699E-24
   6.940000      1.8315666E-24
   6.950000      1.8888188E-24
   6.960000      1.9434582E-24
   6.970000      1.9951002E-24
   6.980000      2.0433434E-24
   6.990000      2.0877705E-24
   7.000000      2.1279478E-24
   7.010000      2.1634272E-24
   7.020000      2.1937455E-24
   7.030000      2.2184252E-24
   7.040000      2.2369758E-24
   7.050000      2.2488941E-24
   7.060000      2.2536656E-24