  -2.600000      0.0000000E+00
  -2.590000      0.0000000E+00
  -2.580000      0.0000000E+00
  -2.570000      0.0000000E+00
  -2.560000      0.0000000E+00
  -2.550000      0.0000000E+00
  -2.540000      0.0000000E+00
  -2.530000      0.0000000E+00
  -2.520000      0.0000000E+00
  -2.510000      0.0000000E+00
  -2.500000      0.0000000E+00
  -2.490000      0.0000000E+00
  -2.480000      0.0000000E+00
  -2.470000      0.0000000E+00
  -2.460000      0.0000000E+00
  -2.450000      0.0000000E+00
  -2.440000      0.0000000E+00
  -2.430000      0.0000000E+00
  -2.420000      0.0000000E+00
  -2.410000      0.0000000E+00
  -2.400000      0.0000000E+00
  -2.390000      0.0000000E+00
  -2.380000      0.0000000E+00
  -2.370000      0.0000000E+00
  -2.360000      0.0000000E+00
  -2.350000      0.0000000E+00
  -2.340000      0.0000000E+00
  -2.330000      0.0000000E+00
  -2.320000      0.0000000E+00
  -2.310000      0.0000000E+00
  -2.300000      0.0000000E+00
  -2.290000      0.0000000E+00
  -2.280000      0.0000000E+00
  -2.270000      0.0000000E+00
  -2.260000      0.0000000E+00
  -2.250000      0.0000000E+00
  -2.240000      0.0000000E+00
  -2.230000      0.0000000E+00
  -2.220000      0.0000000E+00
  -2.210000      0.0000000E+00
  -2.200000      0.0000000E+00
  -2.190000      0.0000000E+00
  -2.180000      0.0000000E+00
  -2.170000      0.0000000E+00
  -2.160000      0.0000000E+00
  -2.150000      0.0000000E+00
  -2.140000      0.0000000E+00
  -2.130000      0.0000000E+00
  -2.120000      0.0000000E+00
  -2.110000      0.0000000E+00
  -2.100000      0.0000000E+00
  -2.090000      0.0000000E+00
  -2.080000      0.0000000E+00
  -2.070000      0.0000000E+00
  -2.060000      0.0000000E+00
  -2.050000      0.0000000E+00
  -2.040000      0.0000000E+00
  -2.030000      0.0000000E+00
  -2.020000      0.0000000E+00
  -2.010000      0.0000000E+00
  -2.000000      0.0000000E+00
  -1.990000      0.0000000E+00
  -1.980000      0.0000000E+00
  -1.970000      0.0000000E+00
  -1.960000      0.0000000E+00
  -1.950000      0.0000000E+00
  -1.940000      0.0000000E+00
  -1.930000      0.0000000E+00
  -1.920000      0.0000000E+00
  -1.910000      0.0000000E+00
  -1.900000      0.0000000E+00
  -1.890000      0.0000000E+00
  -1.880000      0.0000000E+00
  -1.870000      0.0000000E+00
  -1.860000      0.0000000E+00
  -1.850000      0.0000000E+00
  -1.840000      0.0000000E+00
  -1.830000      0.0000000E+00
  -1.820000      0.0000000E+00
  -1.810000      0.0000000E+00
  -1.800000      0.0000000E+00
  -1.790000      0.0000000E+00
  -1.780000      0.0000000E+00
  -1.770000      0.0000000E+00
  -1.760000      0.0000000E+00
  -1.750000      0.0000000E+00
  -1.740000      0.0000000E+00
  -1.730000      0.0000000E+00
  -1.720000      0.0000000E+00
  -1.710000      0.0000000E+00
  -1.700000      0.0000000E+00
  -1.690000      0.0000000E+00
  -1.680000      0.0000000E+00
  -1.670000      0.0000000E+00
  -1.660000      0.0000000E+00
  -1.650000      0.0000000E+00
  -1.640000      0.0000000E+00
  -1.630000      0.0000000E+00
  -1.620000      0.0000000E+00
  -1.610000      0.0000000E+00
  -1.600000      0.0000000E+00
  -1.590000      0.0000000E+00
  -1.580000      0.0000000E+00
  -1.570000      0.0000000E+00
  -1.560000      0.0000000E+00
  -1.550000      0.0000000E+00
  -1.540000      0.0000000E+00
  -1.530000      0.0000000E+00
  -1.520000      0.0000000E+00
  -1.510000      0.0000000E+00
  -1.500000      0.0000000E+00
  -1.490000      0.0000000E+00
  -1.480000      0.0000000E+00
  -1.470000      0.0000000E+00
  -1.460000      0.0000000E+00
  -1.450000      0.0000000E+00
  -1.440000      0.0000000E+00
  -1.430000      0.0000000E+00
  -1.420000      0.0000000E+00
  -1.410000      0.0000000E+00
  -1.400000      0.0000000E+00
  -1.390000      0.0000000E+00
  -1.380000      0.0000000E+00
  -1.370000      0.0000000E+00
  -1.360000      0.0000000E+00
  -1.350000      0.0000000E+00
  -1.340000      0.0000000E+00
  -1.330000      0.0000000E+00
  -1.320000      0.0000000E+00
  -1.310000      0.0000000E+00
  -1.300000      0.0000000E+00
  -1.290000      0.0000000E+00
  -1.280000      0.0000000E+00
  -1.270000      0.0000000E+00
  -1.260000      0.0000000E+00
  -1.250000      0.0000000E+00
  -1.240000      0.0000000E+00
  -1.230000      0.0000000E+00
  -1.220000      0.0000000E+00
  -1.210000      0.0000000E+00
  -1.200000      0.0000000E+00
  -1.190000      0.0000000E+00
  -1.180000      0.0000000E+00
  -1.170000      0.0000000E+00
  -1.160000      0.0000000E+00
  -1.150000      0.0000000E+00
  -1.140000      0.0000000E+00
  -1.130000      0.0000000E+00
  -1.120000      0.0000000E+00
  -1.110000      0.0000000E+00
  -1.100000      0.0000000E+00
  -1.090000      0.0000000E+00
  -1.080000      0.0000000E+00
  -1.070000      0.0000000E+00
  -1.060000      0.0000000E+00
  -1.050000      0.0000000E+00
  -1.040000      0.0000000E+00
  -1.030000      0.0000000E+00
  -1.020000      0.0000000E+00
  -1.010000      0.0000000E+00
  -1.000000      0.0000000E+00
 -0.9900000      0.0000000E+00
 -0.9800000      0.0000000E+00
 -0.9700000      0.0000000E+00
 -0.9600000      0.0000000E+00
 -0.9500000      0.0000000E+00
 -0.9400000      0.0000000E+00
 -0.9300000      0.0000000E+00
 -0.9200000      0.0000000E+00
 -0.9100000      0.0000000E+00
 -0.9000000      0.0000000E+00
 -0.8900000      0.0000000E+00
 -0.8800000      0.0000000E+00
 -0.8700000      0.0000000E+00
 -0.8600000      0.0000000E+00
 -0.8500000      0.0000000E+00
 -0.8400000      0.0000000E+00
 -0.8300000      0.0000000E+00
 -0.8200000      0.0000000E+00
 -0.8100000      0.0000000E+00
 -0.8000000      0.0000000E+00
 -0.7900000      0.0000000E+00
 -0.7800000      0.0000000E+00
 -0.7700000      0.0000000E+00
 -0.7600000      0.0000000E+00
 -0.7500000      0.0000000E+00
 -0.7400000      0.0000000E+00
 -0.7300000      0.0000000E+00
 -0.7200000      0.0000000E+00
 -0.7100000      0.0000000E+00
 -0.7000000      0.0000000E+00
 -0.6900000      0.0000000E+00
 -0.6800000      0.0000000E+00
 -0.6700000      0.0000000E+00
 -0.6600000      0.0000000E+00
 -0.6500000      0.0000000E+00
 -0.6400000      0.0000000E+00
 -0.6300000      0.0000000E+00
 -0.6200000      0.0000000E+00
 -0.6100000      0.0000000E+00
 -0.6000000      0.0000000E+00
 -0.5900000      0.0000000E+00
 -0.5800000      0.0000000E+00
 -0.5700000      0.0000000E+00
 -0.5600000      0.0000000E+00
 -0.5500000      0.0000000E+00
 -0.5400000      0.0000000E+00
 -0.5300000      0.0000000E+00
 -0.5200000      0.0000000E+00
 -0.5100000      0.0000000E+00
 -0.5000000      0.0000000E+00
 -0.4900000      0.0000000E+00
 -0.4800000      0.0000000E+00
 -0.4700000      0.0000000E+00
 -0.4600000      0.0000000E+00
 -0.4500000      0.0000000E+00
 -0.4400000      0.0000000E+00
 -0.4300000      0.0000000E+00
 -0.4200000      0.0000000E+00
 -0.4100000      0.0000000E+00
 -0.4000000      0.0000000E+00
 -0.3900000      0.0000000E+00
 -0.3800000      0.0000000E+00
 -0.3700000      0.0000000E+00
 -0.3600000      0.0000000E+00
 -0.3500000      0.0000000E+00
 -0.3400000      0.0000000E+00
 -0.3300000      0.0000000E+00
 -0.3200000      0.0000000E+00
 -0.3100000      0.0000000E+00
 -0.3000000      0.0000000E+00
 -0.2900000      0.0000000E+00
 -0.2800000      0.0000000E+00
 -0.2700000      0.0000000E+00
 -0.2600000      0.0000000E+00
 -0.2500000      0.0000000E+00
 -0.2400000      0.0000000E+00
 -0.2300000      0.0000000E+00
 -0.2200000      0.0000000E+00
 -0.2100000      0.0000000E+00
 -0.2000000      0.0000000E+00
 -0.1900000      0.0000000E+00
 -0.1800000      0.0000000E+00
 -0.1700000      0.0000000E+00
 -0.1600000      0.0000000E+00
 -0.1500000      0.0000000E+00
 -0.1400000      0.0000000E+00
 -0.1300000      0.0000000E+00
 -0.1200000      0.0000000E+00
 -0.1100000      0.0000000E+00
 -0.1000000      0.0000000E+00
 -9.0000004E-02  0.0000000E+00
 -7.9999998E-02  0.0000000E+00
 -7.0000000E-02  0.0000000E+00
 -5.9999999E-02  0.0000000E+00
 -5.0000001E-02  0.0000000E+00
 -3.9999999E-02  0.0000000E+00
 -2.9999999E-02  0.0000000E+00
 -2.0000000E-02  0.0000000E+00
 -9.9999998E-03  0.0000000E+00
 -3.4694470E-17  0.0000000E+00
  9.9999998E-03  0.0000000E+00
  2.0000000E-02  0.0000000E+00
  2.9999999E-02  0.0000000E+00
  3.9999999E-02  0.0000000E+00
  5.0000001E-02  0.0000000E+00
  5.9999999E-02  0.0000000E+00
  7.0000000E-02  0.0000000E+00
  7.9999998E-02  0.0000000E+00
  9.0000004E-02  0.0000000E+00
  0.1000000      0.0000000E+00
  0.1100000      0.0000000E+00
  0.1200000      0.0000000E+00
  0.1300000      0.0000000E+00
  0.1400000      0.0000000E+00
  0.1500000      0.0000000E+00
  0.1600000      0.0000000E+00
  0.1700000      0.0000000E+00
  0.1800000      0.0000000E+00
  0.1900000      0.0000000E+00
  0.2000000      0.0000000E+00
  0.2100000      0.0000000E+00
  0.2200000      0.0000000E+00
  0.2300000      0.0000000E+00
  0.2400000      0.0000000E+00
  0.2500000      0.0000000E+00
  0.2600000      0.0000000E+00
  0.2700000      0.0000000E+00
  0.2800000      0.0000000E+00
  0.2900000      0.0000000E+00
  0.3000000      0.0000000E+00
  0.3100000      0.0000000E+00
  0.3200000      0.0000000E+00
  0.3300000      0.0000000E+00
  0.3400000      0.0000000E+00
  0.3500000      0.0000000E+00
  0.3600000      0.0000000E+00
  0.3700000      0.0000000E+00
  0.3800000      0.0000000E+00
  0.3900000      0.0000000E+00
  0.4000000      0.0000000E+00
  0.4100000      0.0000000E+00
  0.4200000      0.0000000E+00
  0.4300000      0.0000000E+00
  0.4400000      0.0000000E+00
  0.4500000      0.0000000E+00
  0.4600000      0.0000000E+00
  0.4700000      0.0000000E+00
  0.4800000      0.0000000E+00
  0.4900000      0.0000000E+00
  0.5000000      0.0000000E+00
  0.5100000      0.0000000E+00
  0.5200000      0.0000000E+00
  0.5300000      0.0000000E+00
  0.5400000      0.0000000E+00
  0.5500000      0.0000000E+00
  0.5600000      0.0000000E+00
  0.5700000      0.0000000E+00
  0.5800000      0.0000000E+00
  0.5900000      0.0000000E+00
  0.6000000      0.0000000E+00
  0.6100000      0.0000000E+00
  0.6200000      0.0000000E+00
  0.6300000      0.0000000E+00
  0.6400000      0.0000000E+00
  0.6500000      0.0000000E+00
  0.6600000      0.0000000E+00
  0.6700000      0.0000000E+00
  0.6800000      0.0000000E+00
  0.6900000      0.0000000E+00
  0.7000000      0.0000000E+00
  0.7100000      0.0000000E+00
  0.7200000      0.0000000E+00
  0.7300000      0.0000000E+00
  0.7400000      0.0000000E+00
  0.7500000      0.0000000E+00
  0.7600000      0.0000000E+00
  0.7700000      0.0000000E+00
  0.7800000      0.0000000E+00
  0.7900000      0.0000000E+00
  0.8000000      0.0000000E+00
  0.8100000      0.0000000E+00
  0.8200000      0.0000000E+00
  0.8300000      0.0000000E+00
  0.8400000      0.0000000E+00
  0.8500000      0.0000000E+00
  0.8600000      0.0000000E+00
  0.8700000      0.0000000E+00
  0.8800000      0.0000000E+00
  0.8900000      0.0000000E+00
  0.9000000      0.0000000E+00
  0.9100000      0.0000000E+00
  0.9200000      0.0000000E+00
  0.9300000      0.0000000E+00
  0.9400000      0.0000000E+00
  0.9500000      0.0000000E+00
  0.9600000      0.0000000E+00
  0.9700000      0.0000000E+00
  0.9800000      0.0000000E+00
  0.9900000      0.0000000E+00
   1.000000      0.0000000E+00
   1.010000      0.0000000E+00
   1.020000      0.0000000E+00
   1.030000      0.0000000E+00
   1.040000      0.0000000E+00
   1.050000      0.0000000E+00
   1.060000      0.0000000E+00
   1.070000      0.0000000E+00
   1.080000      0.0000000E+00
   1.090000      0.0000000E+00
   1.100000      0.0000000E+00
   1.110000      0.0000000E+00
   1.120000      0.0000000E+00
   1.130000      0.0000000E+00
   1.140000      0.0000000E+00
   1.150000      0.0000000E+00
   1.160000      0.0000000E+00
   1.170000      0.0000000E+00
   1.180000      0.0000000E+00
   1.190000      0.0000000E+00
   1.200000      0.0000000E+00
   1.210000      0.0000000E+00
   1.220000      0.0000000E+00
   1.230000      0.0000000E+00
   1.240000      0.0000000E+00
   1.250000      0.0000000E+00
   1.260000      0.0000000E+00
   1.270000      0.0000000E+00
   1.280000      0.0000000E+00
   1.290000      0.0000000E+00
   1.300000      0.0000000E+00
   1.310000      0.0000000E+00
   1.320000      0.0000000E+00
   1.330000      0.0000000E+00
   1.340000      0.0000000E+00
   1.350000      0.0000000E+00
   1.360000      0.0000000E+00
   1.370000      0.0000000E+00
   1.380000      0.0000000E+00
   1.390000      0.0000000E+00
   1.400000      0.0000000E+00
   1.410000      0.0000000E+00
   1.420000      0.0000000E+00
   1.430000      0.0000000E+00
   1.440000      0.0000000E+00
   1.450000      0.0000000E+00
   1.460000      0.0000000E+00
   1.470000      0.0000000E+00
   1.480000      0.0000000E+00
   1.490000      0.0000000E+00
   1.500000      0.0000000E+00
   1.510000      0.0000000E+00
   1.520000      0.0000000E+00
   1.530000      0.0000000E+00
   1.540000      0.0000000E+00
   1.550000      0.0000000E+00
   1.560000      0.0000000E+00
   1.570000      0.0000000E+00
   1.580000      0.0000000E+00
   1.590000      0.0000000E+00
   1.600000      0.0000000E+00
   1.610000      0.0000000E+00
   1.620000      0.0000000E+00
   1.630000      0.0000000E+00
   1.640000      0.0000000E+00
   1.650000      0.0000000E+00
   1.660000      0.0000000E+00
   1.670000      0.0000000E+00
   1.680000      0.0000000E+00
   1.690000      0.0000000E+00
   1.700000      0.0000000E+00
   1.710000      0.0000000E+00
   1.720000      0.0000000E+00
   1.730000      0.0000000E+00
   1.740000      0.0000000E+00
   1.750000      0.0000000E+00
   1.760000      0.0000000E+00
   1.770000      0.0000000E+00
   1.780000      0.0000000E+00
   1.790000      0.0000000E+00
   1.800000      0.0000000E+00
   1.810000      0.0000000E+00
   1.820000      0.0000000E+00
   1.830000      0.0000000E+00
   1.840000      0.0000000E+00
   1.850000      0.0000000E+00
   1.860000      0.0000000E+00
   1.870000      0.0000000E+00
   1.880000      0.0000000E+00
   1.890000      0.0000000E+00
   1.900000      0.0000000E+00
   1.910000      0.0000000E+00
   1.920000      0.0000000E+00
   1.930000      0.0000000E+00
   1.940000      0.0000000E+00
   1.950000      0.0000000E+00
   1.960000      0.0000000E+00
   1.970000      0.0000000E+00
   1.980000      0.0000000E+00
   1.990000      0.0000000E+00
   2.000000      0.0000000E+00
   2.010000      0.0000000E+00
   2.020000      0.0000000E+00
   2.030000      0.0000000E+00
   2.040000      0.0000000E+00
   2.050000      0.0000000E+00
   2.060000      0.0000000E+00
   2.070000      0.0000000E+00
   2.080000      0.0000000E+00
   2.090000      0.0000000E+00
   2.100000      0.0000000E+00
   2.110000      0.0000000E+00
   2.120000      0.0000000E+00
   2.130000      0.0000000E+00
   2.140000      0.0000000E+00
   2.150000      0.0000000E+00
   2.160000      0.0000000E+00
   2.170000      0.0000000E+00
   2.180000      0.0000000E+00
   2.190000      0.0000000E+00
   2.200000      0.0000000E+00
   2.210000      0.0000000E+00
   2.220000      0.0000000E+00
   2.230000      0.0000000E+00
   2.240000      0.0000000E+00
   2.250000      0.0000000E+00
   2.260000      0.0000000E+00
   2.270000      0.0000000E+00
   2.280000      0.0000000E+00
   2.290000      0.0000000E+00
   2.300000      0.0000000E+00
   2.310000      0.0000000E+00
   2.320000      0.0000000E+00
   2.330000      0.0000000E+00
   2.340000      0.0000000E+00
   2.350000      0.0000000E+00
   2.360000      0.0000000E+00
   2.370000      0.0000000E+00
   2.380000      0.0000000E+00
   2.390000      0.0000000E+00
   2.400000      0.0000000E+00
   2.410000      0.0000000E+00
   2.420000      0.0000000E+00
   2.430000      0.0000000E+00
   2.440000      0.0000000E+00
   2.450000      0.0000000E+00
   2.460000      0.0000000E+00
   2.470000      0.0000000E+00
   2.480000      0.0000000E+00
   2.490000      0.0000000E+00
   2.500000      0.0000000E+00
   2.510000      0.0000000E+00
   2.520000      0.0000000E+00
   2.530000      0.0000000E+00
   2.540000      0.0000000E+00
   2.550000      0.0000000E+00
   2.560000      0.0000000E+00
   2.570000      0.0000000E+00
   2.580000      0.0000000E+00
   2.590000      0.0000000E+00
   2.600000      0.0000000E+00
   2.610000      0.0000000E+00
   2.620000      0.0000000E+00
   2.630000      0.0000000E+00
   2.640000      0.0000000E+00
   2.650000      0.0000000E+00
   2.660000      0.0000000E+00
   2.670000      0.0000000E+00
   2.680000      0.0000000E+00
   2.690000      0.0000000E+00
   2.700000      0.0000000E+00
   2.710000      0.0000000E+00
   2.720000      0.0000000E+00
   2.730000      0.0000000E+00
   2.740000      0.0000000E+00
   2.750000      0.0000000E+00
   2.760000      0.0000000E+00
   2.770000      0.0000000E+00
   2.780000      0.0000000E+00
   2.790000      0.0000000E+00
   2.800000      0.0000000E+00
   2.810000      0.0000000E+00
   2.820000      0.0000000E+00
   2.830000      0.0000000E+00
   2.840000      0.0000000E+00
   2.850000      0.0000000E+00
   2.860000      0.0000000E+00
   2.870000      0.0000000E+00
   2.880000      0.0000000E+00
   2.890000      0.0000000E+00
   2.900000      0.0000000E+00
   2.910000      0.0000000E+00
   2.920000      0.0000000E+00
   2.930000      0.0000000E+00
   2.940000      0.0000000E+00
   2.950000      0.0000000E+00
   2.960000      0.0000000E+00
   2.970000      0.0000000E+00
   2.980000      0.0000000E+00
   2.990000      0.0000000E+00
   3.000000      0.0000000E+00
   3.010000      0.0000000E+00
   3.020000      0.0000000E+00
   3.030000      0.0000000E+00
   3.040000      0.0000000E+00
   3.050000      0.0000000E+00
   3.060000      0.0000000E+00
   3.070000      0.0000000E+00
   3.080000      0.0000000E+00
   3.090000      0.0000000E+00
   3.100000      0.0000000E+00
   3.110000      0.0000000E+00
   3.120000      0.0000000E+00
   3.130000      0.0000000E+00
   3.140000      0.0000000E+00
   3.150000      0.0000000E+00
   3.160000      0.0000000E+00
   3.170000      0.0000000E+00
   3.180000      0.0000000E+00
   3.190000      0.0000000E+00
   3.200000      0.0000000E+00
   3.210000      0.0000000E+00
   3.220000      0.0000000E+00
   3.230000      0.0000000E+00
   3.240000      0.0000000E+00
   3.250000      0.0000000E+00
   3.260000      0.0000000E+00
   3.270000      0.0000000E+00
   3.280000      0.0000000E+00
   3.290000      0.0000000E+00
   3.300000      0.0000000E+00
   3.310000      0.0000000E+00
   3.320000      0.0000000E+00
   3.330000      0.0000000E+00
   3.340000      0.0000000E+00
   3.350000      0.0000000E+00
   3.360000      0.0000000E+00
   3.370000      0.0000000E+00
   3.380000      0.0000000E+00
   3.390000      0.0000000E+00
   3.400000      0.0000000E+00
   3.410000      0.0000000E+00
   3.420000      0.0000000E+00
   3.430000      0.0000000E+00
   3.440000      0.0000000E+00
   3.450000      0.0000000E+00
   3.460000      0.0000000E+00
   3.470000      0.0000000E+00
   3.480000      0.0000000E+00
   3.490000      0.0000000E+00
   3.500000      0.0000000E+00
   3.510000      0.0000000E+00
   3.520000      0.0000000E+00
   3.530000      0.0000000E+00
   3.540000      0.0000000E+00
   3.550000      0.0000000E+00
   3.560000      0.0000000E+00
   3.570000      0.0000000E+00
   3.580000      0.0000000E+00
   3.590000     -1.2352837E-38
   3.600000     -1.5717754E-38
   3.610000     -1.9144279E-38
   3.620000     -2.2571960E-38
   3.630000     -2.5956599E-38
   3.640000     -2.9229903E-38
   3.650000     -3.2304730E-38
   3.660000     -3.5101277E-38
   3.670000     -3.7542355E-38
   3.680000     -3.8664316E-38
   3.690000     -3.8664316E-38
   3.700000     -3.8664316E-38
   3.710000     -3.8664316E-38
   3.720000     -3.8664316E-38
   3.730000     -3.8664316E-38
   3.740000     -3.7551907E-38
   3.750000     -3.4787865E-38
   3.760000     -3.0917434E-38
   3.770000     -2.5888317E-38
   3.780000     -1.9654737E-38
   3.790000     -1.2175004E-38
   3.800000      0.0000000E+00
   3.810000      0.0000000E+00
   3.820000      2.0792430E-38
   3.830000      3.5288347E-38
   3.840000      5.0841535E-38
   3.850000      6.7252635E-38
   3.860000      8.4306790E-38
   3.870000      1.0182600E-37
   3.880000      1.1968708E-37
   3.890000      1.3780508E-37
   3.900000      1.5435604E-37
   3.910000      1.6860687E-37
   3.920000      1.8160675E-37
   3.930000      1.9336605E-37
   3.940000      2.0395318E-37
   3.950000      2.1350304E-37
   3.960000      2.2222742E-37
   3.970000      2.3041104E-37
   3.980000      2.3716690E-37
   3.990000      2.4286045E-37
   4.000000      2.4915992E-37
   4.010000      2.5659192E-37
   4.020000      2.6682155E-37
   4.030000      2.8020333E-37
   4.040000      2.9717608E-37
   4.050000      3.1830441E-37
   4.060000      3.4000447E-37
   4.070000      3.6218917E-37
   4.080000      3.8748728E-37
   4.090000      4.1593023E-37
   4.100000      4.4740254E-37
   4.110000      4.8414575E-37
   4.120000      5.2572306E-37
   4.130000      5.6917237E-37
   4.140000      6.4253633E-37
   4.150000      7.4509255E-37
   4.160000      8.5042297E-37
   4.170000      9.5745222E-37
   4.180000      1.0094330E-36
   4.190000      9.9750873E-37
   4.200000      9.7175829E-37
   4.210000      9.3444007E-37
   4.220000      1.0268731E-36
   4.230000      1.3720542E-36
   4.240000      1.8628065E-36
   4.250000      2.3843375E-36
   4.260000      2.9409329E-36
   4.270000      3.5690793E-36
   4.280000      4.2747694E-36
   4.290000      4.3795656E-36
   4.300000      3.7873195E-36
   4.310000      3.1023261E-36
   4.320000      2.4017832E-36
   4.330000      1.7972370E-36
   4.340000      1.3745938E-36
   4.350000      1.2018746E-36
   4.360000      1.3160412E-36
   4.370000      2.1917429E-36
   4.380000      3.6189890E-36
   4.390000      5.0049352E-36
   4.400000      6.4109470E-36
   4.410000      6.2451402E-36
   4.420000      4.2427339E-36
   4.430000      1.8648661E-36
   4.440000     -6.1647814E-37
   4.450000     -2.4400984E-36
   4.460000     -3.6121562E-36
   4.470000     -4.4270861E-36
   4.480000     -4.8275137E-36
   4.490000     -5.1451378E-36
   4.500000     -5.3989891E-36
   4.510000     -5.6174252E-36
   4.520000     -5.7626975E-36
   4.530000     -5.1756810E-36
   4.540000     -4.0063949E-36
   4.550000     -2.9567417E-36
   4.560000     -2.0618258E-36
   4.570000     -1.6135127E-36
   4.580000     -1.5518274E-36
   4.590000     -3.2114016E-36
   4.600000     -6.1450381E-36
   4.610000     -8.6827068E-36
   4.620000     -1.1379209E-35
   4.630000     -1.3443563E-35
   4.640000     -1.4665714E-35
   4.650000     -1.6944725E-35
   4.660000     -1.9710531E-35
   4.670000     -2.1251039E-35
   4.680000     -2.1780612E-35
   4.690000     -2.0750411E-35
   4.700000     -1.7376345E-35
   4.710000     -1.3375658E-35
   4.720000     -1.0225746E-35
   4.730000     -7.8659111E-36
   4.740000     -6.5589536E-36
   4.750000     -6.8493238E-36
   4.760000     -8.1371171E-36
   4.770000     -9.3372844E-36
   4.780000     -1.0417167E-35
   4.790000     -1.1222453E-35
   4.800000     -1.1677335E-35
   4.810000     -1.1901152E-35
   4.820000     -1.1148709E-35
   4.830000     -8.1538262E-36
   4.840000     -2.9594643E-36
   4.850000      3.8323405E-36
   4.860000      1.1910632E-35
   4.870000      2.0638237E-35
   4.880000      2.9632054E-35
   4.890000      3.8362384E-35
   4.900000      4.6852140E-35
   4.910000      5.0839562E-35
   4.920000      4.8879638E-35
   4.930000      4.4489169E-35
   4.940000      3.9922055E-35
   4.950000      3.6346684E-35
   4.960000      3.3459985E-35
   4.970000      3.5034263E-35
   4.980000      4.0740648E-35
   4.990000      4.7478223E-35
   5.000000      5.4353343E-35
   5.010000      6.0728587E-35
   5.020000      6.7699400E-35
   5.030000      7.3923184E-35
   5.040000      7.8035497E-35
   5.050000      8.2534386E-35
   5.060000      9.0107692E-35
   5.070000      9.5875116E-35
   5.080000      9.8494316E-35
   5.090000      1.0181446E-34
   5.100000      1.0904233E-34
   5.110000      1.2018052E-34
   5.120000      1.3020706E-34
   5.130000      1.3558119E-34
   5.140000      1.3614520E-34
   5.150000      1.3355424E-34
   5.160000      1.2292755E-34
   5.170000      1.0517870E-34
   5.180000      8.9303322E-35
   5.190000      8.0265044E-35
   5.200000      7.6133549E-35
   5.210000      7.1818222E-35
   5.220000      6.5991599E-35
   5.230000      5.9681800E-35
   5.240000      5.2463931E-35
   5.250000      4.0909287E-35
   5.260000      2.2197077E-35
   5.270000     -3.9242201E-36
   5.280000     -3.5744961E-35
   5.290000     -7.1167120E-35
   5.300000     -1.0601611E-34
   5.310000     -1.3891154E-34
   5.320000     -1.7221595E-34
   5.330000     -2.0908096E-34
   5.340000     -2.5565572E-34
   5.350000     -3.1044230E-34
   5.360000     -3.6263023E-34
   5.370000     -4.0927843E-34
   5.380000     -4.5381038E-34
   5.390000     -4.9417277E-34
   5.400000     -5.3427610E-34
   5.410000     -5.7671300E-34
   5.420000     -6.1637942E-34
   5.430000     -6.5295309E-34
   5.440000     -6.8549151E-34
   5.450000     -7.2032544E-34
   5.460000     -7.6198896E-34
   5.470000     -8.1773687E-34
   5.480000     -8.8855085E-34
   5.490000     -9.6200492E-34
   5.500000     -1.0357389E-33
   5.510000     -1.1089398E-33
   5.520000     -1.1685216E-33
   5.530000     -1.2168610E-33
   5.540000     -1.2664916E-33
   5.550000     -1.3134894E-33
   5.560000     -1.3562283E-33
   5.570000     -1.3936765E-33
   5.580000     -1.4248539E-33
   5.590000     -1.4482381E-33
   5.600000     -1.4624229E-33
   5.610000     -1.4697873E-33
   5.620000     -1.4705094E-33
   5.630000     -1.4684335E-33
   5.640000     -1.4671376E-33
   5.650000     -1.4627981E-33
   5.660000     -1.4525967E-33
   5.670000     -1.4298860E-33
   5.680000     -1.3942529E-33
   5.690000     -1.3530983E-33
   5.700000     -1.3048680E-33
   5.710000     -1.2441768E-33
   5.720000     -1.1638522E-33
   5.730000     -1.0549054E-33
   5.740000     -9.1682535E-34
   5.750000     -7.5016950E-34
   5.760000     -5.5079000E-34
   5.770000     -3.1759401E-34
   5.780000     -5.7547824E-35
   5.790000      2.3225525E-34
   5.800000      5.4591969E-34
   5.810000      8.6955661E-34
   5.820000      1.2051635E-33
   5.830000      1.5500291E-33
   5.840000      1.9013965E-33
   5.850000      2.2689082E-33
   5.860000      2.6637738E-33
   5.870000      3.0912691E-33
   5.880000      3.5525596E-33
   5.890000      4.0471628E-33
   5.900000      4.5745233E-33
   5.910000      5.1393579E-33
   5.920000      5.7454722E-33
   5.930000      6.3899777E-33
   5.940000      7.0705339E-33
   5.950000      7.7838650E-33
   5.960000      8.5248187E-33
   5.970000      9.2855884E-33
   5.980000      1.0057998E-32
   5.990000      1.0838066E-32
   6.000000      1.1623999E-32
   6.010000      1.2412439E-32
   6.020000      1.3204588E-32
   6.030000      1.4002405E-32
   6.040000      1.4800995E-32
   6.050000      1.5600695E-32
   6.060000      1.6407083E-32
   6.070000      1.7216046E-32
   6.080000      1.8023223E-32
   6.090000      1.8827521E-32
   6.100000      1.9624276E-32
   6.110000      2.0404012E-32
   6.120000      2.1153240E-32
   6.130000      2.1860926E-32
   6.140000      2.2516040E-32
   6.150000      2.3104929E-32
   6.160000      2.3616130E-32
   6.170000      2.4041056E-32
   6.180000      2.4371933E-32
   6.190000      2.4599977E-32
   6.200000      2.4719606E-32
   6.210000      2.4722080E-32
   6.220000      2.4601376E-32
   6.230000      2.4345758E-32
   6.240000      2.3946605E-32
   6.250000      2.3398225E-32
   6.260000      2.2691027E-32
   6.270000      2.1816845E-32
   6.280000      2.0758701E-32
   6.290000      1.9501297E-32
   6.300000      1.8028041E-32
   6.310000      1.6321501E-32
   6.320000      1.4364845E-32
   6.330000      1.2143425E-32
   6.340000      9.6424861E-33
   6.350000      6.8447045E-33
   6.360000      3.7400395E-33
   6.370000      3.2167189E-34
   6.380000     -3.4200520E-33
   6.390000     -7.4919501E-33
   6.400000     -1.1900531E-32
   6.410000     -1.6652160E-32
   6.420000     -2.1753027E-32
   6.430000     -2.7210381E-32
   6.440000     -3.3031565E-32
   6.450000     -3.9224392E-32
   6.460000     -4.5797448E-32
   6.470000     -5.2758020E-32
   6.480000     -6.0112007E-32
   6.490000     -6.7864081E-32
   6.500000     -7.6015905E-32
   6.510000     -8.4565716E-32
   6.520000     -9.3508142E-32
   6.530000     -1.0283455E-31
   6.540000     -1.1253230E-31
   6.550000     -1.2258463E-31
   6.560000     -1.3297165E-31
   6.570000     -1.4367012E-31
   6.580000     -1.5465436E-31
   6.590000     -1.6589650E-31
   6.600000     -1.7736705E-31
   6.610000     -1.8903487E-31
   6.620000     -2.0086467E-31
   6.630000     -2.1281958E-31
   6.640000     -2.2486076E-31
   6.650000     -2.3694329E-31
   6.660000     -2.4901903E-31
   6.670000     -2.6103434E-31
   6.680000     -2.7292905E-31
   6.690000     -2.8463843E-31
   6.700000     -2.9608895E-31
   6.710000     -3.0720033E-31
   6.720000     -3.1788931E-31
   6.730000     -3.2806634E-31
   6.740000     -3.3763602E-31
   6.750000     -3.4649899E-31
   6.760000     -3.5455150E-31
   6.770000     -3.6168609E-31
   6.780000     -3.6779210E-31
   6.790000     -3.7275547E-31
   6.800000     -3.7645825E-31
   6.810000     -3.7877705E-31
   6.820000     -3.7958568E-31
   6.830000     -3.7875319E-31
   6.840000     -3.7614228E-31
   6.850000     -3.7161124E-31
   6.860000     -3.6501310E-31
   6.870000     -3.5619611E-31
   6.880000     -3.4500414E-31
   6.890000     -3.3127789E-31
   6.900000     -3.1485546E-31
   6.910000     -2.9557366E-31
   6.920000     -2.7326922E-31
   6.930000     -2.4777954E-31
   6.940000     -2.1894389E-31
   6.950000     -1.8660413E-31
   6.960000     -1.5060526E-31
   6.970000     -1.1079589E-31
   6.980000     -6.7028763E-32
   6.990000     -1.9161137E-32
   7.000000      3.2944901E-32
   7.010000      8.9421713E-32
   7.020000      1.5039537E-31
   7.030000      2.1598458E-31
   7.040000      2.8629955E-31
   7.050000      3.6144046E-31
   7.060000      4.4149555E-31