  -2.600000      0.0000000E+00
  -2.590000      0.0000000E+00
  -2.580000      0.0000000E+00
  -2.570000      0.0000000E+00
  -2.560000      0.0000000E+00
  -2.550000      0.0000000E+00
  -2.540000      0.0000000E+00
  -2.530000      0.0000000E+00
  -2.520000      0.0000000E+00
  -2.510000      0.0000000E+00
  -2.500000      0.0000000E+00
  -2.490000      0.0000000E+00
  -2.480000      0.0000000E+00
  -2.470000      0.0000000E+00
  -2.460000      0.0000000E+00
  -2.450000      0.0000000E+00
  -2.440000      0.0000000E+00
  -2.430000      0.0000000E+00
  -2.420000      0.0000000E+00
  -2.410000      0.0000000E+00
  -2.400000      0.0000000E+00
  -2.390000      0.0000000E+00
  -2.380000      0.0000000E+00
  -2.370000      0.0000000E+00
  -2.360000      0.0000000E+00
  -2.350000      0.0000000E+00
  -2.340000      0.0000000E+00
  -2.330000      0.0000000E+00
  -2.320000      0.0000000E+00
  -2.310000      0.0000000E+00
  -2.300000      0.0000000E+00
  -2.290000      0.0000000E+00
  -2.280000      0.0000000E+00
  -2.270000      0.0000000E+00
  -2.260000      0.0000000E+00
  -2.250000      0.0000000E+00
  -2.240000      0.0000000E+00
  -2.230000      0.0000000E+00
  -2.220000      0.0000000E+00
  -2.210000      0.0000000E+00
  -2.200000      0.0000000E+00
  -2.190000      0.0000000E+00
  -2.180000      0.0000000E+00
  -2.170000      0.0000000E+00
  -2.160000      0.0000000E+00
  -2.150000      0.0000000E+00
  -2.140000      0.0000000E+00
  -2.130000      0.0000000E+00
  -2.120000      0.0000000E+00
  -2.110000      0.0000000E+00
  -2.100000      0.0000000E+00
  -2.090000      0.0000000E+00
  -2.080000      0.0000000E+00
  -2.070000      0.0000000E+00
  -2.060000      0.0000000E+00
  -2.050000      0.0000000E+00
  -2.040000      0.0000000E+00
  -2.030000      0.0000000E+00
  -2.020000      0.0000000E+00
  -2.010000      0.0000000E+00
  -2.000000      0.0000000E+00
  -1.990000      0.0000000E+00
  -1.980000      0.0000000E+00
  -1.970000      0.0000000E+00
  -1.960000      0.0000000E+00
  -1.950000      0.0000000E+00
  -1.940000      0.0000000E+00
  -1.930000      0.0000000E+00
  -1.920000      0.0000000E+00
  -1.910000      0.0000000E+00
  -1.900000      0.0000000E+00
  -1.890000      0.0000000E+00
  -1.880000      0.0000000E+00
  -1.870000      0.0000000E+00
  -1.860000      0.0000000E+00
  -1.850000      0.0000000E+00
  -1.840000      0.0000000E+00
  -1.830000      0.0000000E+00
  -1.820000      0.0000000E+00
  -1.810000      0.0000000E+00
  -1.800000      0.0000000E+00
  -1.790000      0.0000000E+00
  -1.780000      0.0000000E+00
  -1.770000      0.0000000E+00
  -1.760000      0.0000000E+00
  -1.750000      0.0000000E+00
  -1.740000      0.0000000E+00
  -1.730000      0.0000000E+00
  -1.720000      0.0000000E+00
  -1.710000      0.0000000E+00
  -1.700000      0.0000000E+00
  -1.690000      0.0000000E+00
  -1.680000      0.0000000E+00
  -1.670000      0.0000000E+00
  -1.660000      0.0000000E+00
  -1.650000      0.0000000E+00
  -1.640000      0.0000000E+00
  -1.630000      0.0000000E+00
  -1.620000      0.0000000E+00
  -1.610000      0.0000000E+00
  -1.600000      0.0000000E+00
  -1.590000      0.0000000E+00
  -1.580000      0.0000000E+00
  -1.570000      0.0000000E+00
  -1.560000      0.0000000E+00
  -1.550000      0.0000000E+00
  -1.540000      0.0000000E+00
  -1.530000      0.0000000E+00
  -1.520000      0.0000000E+00
  -1.510000      0.0000000E+00
  -1.500000      0.0000000E+00
  -1.490000      0.0000000E+00
  -1.480000      0.0000000E+00
  -1.470000      0.0000000E+00
  -1.460000      0.0000000E+00
  -1.450000      0.0000000E+00
  -1.440000      0.0000000E+00
  -1.430000      0.0000000E+00
  -1.420000      0.0000000E+00
  -1.410000      0.0000000E+00
  -1.400000      0.0000000E+00
  -1.390000      0.0000000E+00
  -1.380000      0.0000000E+00
  -1.370000      0.0000000E+00
  -1.360000      0.0000000E+00
  -1.350000      0.0000000E+00
  -1.340000      0.0000000E+00
  -1.330000      0.0000000E+00
  -1.320000      0.0000000E+00
  -1.310000      0.0000000E+00
  -1.300000      0.0000000E+00
  -1.290000      0.0000000E+00
  -1.280000      0.0000000E+00
  -1.270000      0.0000000E+00
  -1.260000      0.0000000E+00
  -1.250000      0.0000000E+00
  -1.240000      0.0000000E+00
  -1.230000      0.0000000E+00
  -1.220000      0.0000000E+00
  -1.210000      0.0000000E+00
  -1.200000      0.0000000E+00
  -1.190000      0.0000000E+00
  -1.180000      0.0000000E+00
  -1.170000      0.0000000E+00
  -1.160000      0.0000000E+00
  -1.150000      0.0000000E+00
  -1.140000      0.0000000E+00
  -1.130000      0.0000000E+00
  -1.120000      0.0000000E+00
  -1.110000      0.0000000E+00
  -1.100000      0.0000000E+00
  -1.090000      0.0000000E+00
  -1.080000      0.0000000E+00
  -1.070000      0.0000000E+00
  -1.060000      0.0000000E+00
  -1.050000      0.0000000E+00
  -1.040000      0.0000000E+00
  -1.030000      0.0000000E+00
  -1.020000      0.0000000E+00
  -1.010000      0.0000000E+00
  -1.000000      0.0000000E+00
 -0.9900000      0.0000000E+00
 -0.9800000      0.0000000E+00
 -0.9700000      0.0000000E+00
 -0.9600000      0.0000000E+00
 -0.9500000      0.0000000E+00
 -0.9400000      0.0000000E+00
 -0.9300000      0.0000000E+00
 -0.9200000      0.0000000E+00
 -0.9100000      0.0000000E+00
 -0.9000000      0.0000000E+00
 -0.8900000      0.0000000E+00
 -0.8800000      0.0000000E+00
 -0.8700000      0.0000000E+00
 -0.8600000      0.0000000E+00
 -0.8500000      0.0000000E+00
 -0.8400000      0.0000000E+00
 -0.8300000      0.0000000E+00
 -0.8200000      0.0000000E+00
 -0.8100000      0.0000000E+00
 -0.8000000      0.0000000E+00
 -0.7900000      0.0000000E+00
 -0.7800000      0.0000000E+00
 -0.7700000      0.0000000E+00
 -0.7600000      0.0000000E+00
 -0.7500000      0.0000000E+00
 -0.7400000      0.0000000E+00
 -0.7300000      0.0000000E+00
 -0.7200000      0.0000000E+00
 -0.7100000      0.0000000E+00
 -0.7000000      0.0000000E+00
 -0.6900000      0.0000000E+00
 -0.6800000      0.0000000E+00
 -0.6700000      0.0000000E+00
 -0.6600000      0.0000000E+00
 -0.6500000      0.0000000E+00
 -0.6400000      0.0000000E+00
 -0.6300000      0.0000000E+00
 -0.6200000      0.0000000E+00
 -0.6100000      0.0000000E+00
 -0.6000000      0.0000000E+00
 -0.5900000      0.0000000E+00
 -0.5800000      0.0000000E+00
 -0.5700000      0.0000000E+00
 -0.5600000      0.0000000E+00
 -0.5500000      0.0000000E+00
 -0.5400000      0.0000000E+00
 -0.5300000      0.0000000E+00
 -0.5200000      0.0000000E+00
 -0.5100000      0.0000000E+00
 -0.5000000      0.0000000E+00
 -0.4900000      0.0000000E+00
 -0.4800000      0.0000000E+00
 -0.4700000      0.0000000E+00
 -0.4600000      0.0000000E+00
 -0.4500000      0.0000000E+00
 -0.4400000      0.0000000E+00
 -0.4300000      0.0000000E+00
 -0.4200000      0.0000000E+00
 -0.4100000      0.0000000E+00
 -0.4000000      0.0000000E+00
 -0.3900000      0.0000000E+00
 -0.3800000      0.0000000E+00
 -0.3700000      0.0000000E+00
 -0.3600000      0.0000000E+00
 -0.3500000      0.0000000E+00
 -0.3400000      0.0000000E+00
 -0.3300000      0.0000000E+00
 -0.3200000      0.0000000E+00
 -0.3100000      0.0000000E+00
 -0.3000000      0.0000000E+00
 -0.2900000      0.0000000E+00
 -0.2800000      0.0000000E+00
 -0.2700000      0.0000000E+00
 -0.2600000      0.0000000E+00
 -0.2500000      0.0000000E+00
 -0.2400000      0.0000000E+00
 -0.2300000      0.0000000E+00
 -0.2200000      0.0000000E+00
 -0.2100000      0.0000000E+00
 -0.2000000      0.0000000E+00
 -0.1900000      0.0000000E+00
 -0.1800000      0.0000000E+00
 -0.1700000      0.0000000E+00
 -0.1600000      0.0000000E+00
 -0.1500000      0.0000000E+00
 -0.1400000      0.0000000E+00
 -0.1300000      0.0000000E+00
 -0.1200000      0.0000000E+00
 -0.1100000      0.0000000E+00
 -0.1000000      0.0000000E+00
 -9.0000004E-02  0.0000000E+00
 -7.9999998E-02  0.0000000E+00
 -7.0000000E-02  0.0000000E+00
 -5.9999999E-02  0.0000000E+00
 -5.0000001E-02  0.0000000E+00
 -3.9999999E-02  0.0000000E+00
 -2.9999999E-02  0.0000000E+00
 -2.0000000E-02  0.0000000E+00
 -9.9999998E-03  0.0000000E+00
 -3.4694470E-17  0.0000000E+00
  9.9999998E-03  0.0000000E+00
  2.0000000E-02  0.0000000E+00
  2.9999999E-02  0.0000000E+00
  3.9999999E-02  0.0000000E+00
  5.0000001E-02  0.0000000E+00
  5.9999999E-02  0.0000000E+00
  7.0000000E-02  0.0000000E+00
  7.9999998E-02  0.0000000E+00
  9.0000004E-02  0.0000000E+00
  0.1000000      0.0000000E+00
  0.1100000      0.0000000E+00
  0.1200000      0.0000000E+00
  0.1300000      0.0000000E+00
  0.1400000      0.0000000E+00
  0.1500000      0.0000000E+00
  0.1600000      0.0000000E+00
  0.1700000      0.0000000E+00
  0.1800000      0.0000000E+00
  0.1900000      0.0000000E+00
  0.2000000      0.0000000E+00
  0.2100000      0.0000000E+00
  0.2200000      0.0000000E+00
  0.2300000      0.0000000E+00
  0.2400000      0.0000000E+00
  0.2500000      0.0000000E+00
  0.2600000      0.0000000E+00
  0.2700000      0.0000000E+00
  0.2800000      0.0000000E+00
  0.2900000      0.0000000E+00
  0.3000000      0.0000000E+00
  0.3100000      0.0000000E+00
  0.3200000      0.0000000E+00
  0.3300000      0.0000000E+00
  0.3400000      0.0000000E+00
  0.3500000      0.0000000E+00
  0.3600000      0.0000000E+00
  0.3700000      0.0000000E+00
  0.3800000      0.0000000E+00
  0.3900000      0.0000000E+00
  0.4000000      0.0000000E+00
  0.4100000      0.0000000E+00
  0.4200000      0.0000000E+00
  0.4300000      0.0000000E+00
  0.4400000      0.0000000E+00
  0.4500000      0.0000000E+00
  0.4600000      0.0000000E+00
  0.4700000      0.0000000E+00
  0.4800000      0.0000000E+00
  0.4900000      0.0000000E+00
  0.5000000      0.0000000E+00
  0.5100000      0.0000000E+00
  0.5200000      0.0000000E+00
  0.5300000      0.0000000E+00
  0.5400000      0.0000000E+00
  0.5500000      0.0000000E+00
  0.5600000      0.0000000E+00
  0.5700000      0.0000000E+00
  0.5800000      0.0000000E+00
  0.5900000      0.0000000E+00
  0.6000000      0.0000000E+00
  0.6100000      0.0000000E+00
  0.6200000      0.0000000E+00
  0.6300000      0.0000000E+00
  0.6400000      0.0000000E+00
  0.6500000      0.0000000E+00
  0.6600000      0.0000000E+00
  0.6700000      0.0000000E+00
  0.6800000      0.0000000E+00
  0.6900000      0.0000000E+00
  0.7000000      0.0000000E+00
  0.7100000      0.0000000E+00
  0.7200000      0.0000000E+00
  0.7300000      0.0000000E+00
  0.7400000      0.0000000E+00
  0.7500000      0.0000000E+00
  0.7600000      0.0000000E+00
  0.7700000      0.0000000E+00
  0.7800000      0.0000000E+00
  0.7900000      0.0000000E+00
  0.8000000      0.0000000E+00
  0.8100000      0.0000000E+00
  0.8200000      0.0000000E+00
  0.8300000      0.0000000E+00
  0.8400000      0.0000000E+00
  0.8500000      0.0000000E+00
  0.8600000      0.0000000E+00
  0.8700000      0.0000000E+00
  0.8800000      0.0000000E+00
  0.8900000      0.0000000E+00
  0.9000000      0.0000000E+00
  0.9100000      0.0000000E+00
  0.9200000      0.0000000E+00
  0.9300000      0.0000000E+00
  0.9400000      0.0000000E+00
  0.9500000      0.0000000E+00
  0.9600000      0.0000000E+00
  0.9700000      0.0000000E+00
  0.9800000      0.0000000E+00
  0.9900000      0.0000000E+00
   1.000000      0.0000000E+00
   1.010000      0.0000000E+00
   1.020000      0.0000000E+00
   1.030000      0.0000000E+00
   1.040000      0.0000000E+00
   1.050000      0.0000000E+00
   1.060000      0.0000000E+00
   1.070000      0.0000000E+00
   1.080000      0.0000000E+00
   1.090000      0.0000000E+00
   1.100000      0.0000000E+00
   1.110000      0.0000000E+00
   1.120000      0.0000000E+00
   1.130000      0.0000000E+00
   1.140000      0.0000000E+00
   1.150000      0.0000000E+00
   1.160000      0.0000000E+00
   1.170000      0.0000000E+00
   1.180000      0.0000000E+00
   1.190000      0.0000000E+00
   1.200000      0.0000000E+00
   1.210000      0.0000000E+00
   1.220000      0.0000000E+00
   1.230000      0.0000000E+00
   1.240000      0.0000000E+00
   1.250000      0.0000000E+00
   1.260000      0.0000000E+00
   1.270000      0.0000000E+00
   1.280000      0.0000000E+00
   1.290000      0.0000000E+00
   1.300000      0.0000000E+00
   1.310000      0.0000000E+00
   1.320000      0.0000000E+00
   1.330000      0.0000000E+00
   1.340000      0.0000000E+00
   1.350000      0.0000000E+00
   1.360000      0.0000000E+00
   1.370000      0.0000000E+00
   1.380000      0.0000000E+00
   1.390000      0.0000000E+00
   1.400000      0.0000000E+00
   1.410000      0.0000000E+00
   1.420000      0.0000000E+00
   1.430000      0.0000000E+00
   1.440000      0.0000000E+00
   1.450000      0.0000000E+00
   1.460000      0.0000000E+00
   1.470000      0.0000000E+00
   1.480000      0.0000000E+00
   1.490000      0.0000000E+00
   1.500000      0.0000000E+00
   1.510000      0.0000000E+00
   1.520000      0.0000000E+00
   1.530000      0.0000000E+00
   1.540000      0.0000000E+00
   1.550000      0.0000000E+00
   1.560000      0.0000000E+00
   1.570000      0.0000000E+00
   1.580000      0.0000000E+00
   1.590000      0.0000000E+00
   1.600000      0.0000000E+00
   1.610000      0.0000000E+00
   1.620000      0.0000000E+00
   1.630000      0.0000000E+00
   1.640000      0.0000000E+00
   1.650000      0.0000000E+00
   1.660000      0.0000000E+00
   1.670000      0.0000000E+00
   1.680000      0.0000000E+00
   1.690000      0.0000000E+00
   1.700000      0.0000000E+00
   1.710000      0.0000000E+00
   1.720000      0.0000000E+00
   1.730000      0.0000000E+00
   1.740000      0.0000000E+00
   1.750000      0.0000000E+00
   1.760000      0.0000000E+00
   1.770000      0.0000000E+00
   1.780000      0.0000000E+00
   1.790000      0.0000000E+00
   1.800000      0.0000000E+00
   1.810000      0.0000000E+00
   1.820000      0.0000000E+00
   1.830000      0.0000000E+00
   1.840000      0.0000000E+00
   1.850000      0.0000000E+00
   1.860000      0.0000000E+00
   1.870000      0.0000000E+00
   1.880000      0.0000000E+00
   1.890000      0.0000000E+00
   1.900000      0.0000000E+00
   1.910000      0.0000000E+00
   1.920000      0.0000000E+00
   1.930000      0.0000000E+00
   1.940000      0.0000000E+00
   1.950000      0.0000000E+00
   1.960000      0.0000000E+00
   1.970000      0.0000000E+00
   1.980000      0.0000000E+00
   1.990000      0.0000000E+00
   2.000000      0.0000000E+00
   2.010000      0.0000000E+00
   2.020000      0.0000000E+00
   2.030000      0.0000000E+00
   2.040000      0.0000000E+00
   2.050000      0.0000000E+00
   2.060000      0.0000000E+00
   2.070000      0.0000000E+00
   2.080000      0.0000000E+00
   2.090000      0.0000000E+00
   2.100000      0.0000000E+00
   2.110000      0.0000000E+00
   2.120000      0.0000000E+00
   2.130000      0.0000000E+00
   2.140000      0.0000000E+00
   2.150000      0.0000000E+00
   2.160000      0.0000000E+00
   2.170000      0.0000000E+00
   2.180000      0.0000000E+00
   2.190000      0.0000000E+00
   2.200000      0.0000000E+00
   2.210000      0.0000000E+00
   2.220000      0.0000000E+00
   2.230000      0.0000000E+00
   2.240000      0.0000000E+00
   2.250000      0.0000000E+00
   2.260000      0.0000000E+00
   2.270000      0.0000000E+00
   2.280000      0.0000000E+00
   2.290000      0.0000000E+00
   2.300000      0.0000000E+00
   2.310000      0.0000000E+00
   2.320000      0.0000000E+00
   2.330000      0.0000000E+00
   2.340000      0.0000000E+00
   2.350000      0.0000000E+00
   2.360000      0.0000000E+00
   2.370000      0.0000000E+00
   2.380000      0.0000000E+00
   2.390000      0.0000000E+00
   2.400000      0.0000000E+00
   2.410000      0.0000000E+00
   2.420000      0.0000000E+00
   2.430000      0.0000000E+00
   2.440000      0.0000000E+00
   2.450000      0.0000000E+00
   2.460000      0.0000000E+00
   2.470000      0.0000000E+00
   2.480000      0.0000000E+00
   2.490000      0.0000000E+00
   2.500000      0.0000000E+00
   2.510000      0.0000000E+00
   2.520000      0.0000000E+00
   2.530000      0.0000000E+00
   2.540000      0.0000000E+00
   2.550000      0.0000000E+00
   2.560000      0.0000000E+00
   2.570000      0.0000000E+00
   2.580000      0.0000000E+00
   2.590000      0.0000000E+00
   2.600000      0.0000000E+00
   2.610000      0.0000000E+00
   2.620000      0.0000000E+00
   2.630000      0.0000000E+00
   2.640000      0.0000000E+00
   2.650000      0.0000000E+00
   2.660000      0.0000000E+00
   2.670000      0.0000000E+00
   2.680000      0.0000000E+00
   2.690000      0.0000000E+00
   2.700000      0.0000000E+00
   2.710000      0.0000000E+00
   2.720000      0.0000000E+00
   2.730000      0.0000000E+00
   2.740000      0.0000000E+00
   2.750000      0.0000000E+00
   2.760000      0.0000000E+00
   2.770000      0.0000000E+00
   2.780000      0.0000000E+00
   2.790000      0.0000000E+00
   2.800000      0.0000000E+00
   2.810000      0.0000000E+00
   2.820000      0.0000000E+00
   2.830000      0.0000000E+00
   2.840000      0.0000000E+00
   2.850000      0.0000000E+00
   2.860000      0.0000000E+00
   2.870000      0.0000000E+00
   2.880000      0.0000000E+00
   2.890000      0.0000000E+00
   2.900000      0.0000000E+00
   2.910000      0.0000000E+00
   2.920000      0.0000000E+00
   2.930000      0.0000000E+00
   2.940000      0.0000000E+00
   2.950000      0.0000000E+00
   2.960000      0.0000000E+00
   2.970000      0.0000000E+00
   2.980000      0.0000000E+00
   2.990000      0.0000000E+00
   3.000000      0.0000000E+00
   3.010000      0.0000000E+00
   3.020000      0.0000000E+00
   3.030000      0.0000000E+00
   3.040000      0.0000000E+00
   3.050000      0.0000000E+00
   3.060000      0.0000000E+00
   3.070000      0.0000000E+00
   3.080000      0.0000000E+00
   3.090000      0.0000000E+00
   3.100000      0.0000000E+00
   3.110000      0.0000000E+00
   3.120000      0.0000000E+00
   3.130000      0.0000000E+00
   3.140000      0.0000000E+00
   3.150000      0.0000000E+00
   3.160000      0.0000000E+00
   3.170000      0.0000000E+00
   3.180000      0.0000000E+00
   3.190000      0.0000000E+00
   3.200000      0.0000000E+00
   3.210000      0.0000000E+00
   3.220000      0.0000000E+00
   3.230000      0.0000000E+00
   3.240000      0.0000000E+00
   3.250000      0.0000000E+00
   3.260000      0.0000000E+00
   3.270000      0.0000000E+00
   3.280000      0.0000000E+00
   3.290000      0.0000000E+00
   3.300000      0.0000000E+00
   3.310000      0.0000000E+00
   3.320000      0.0000000E+00
   3.330000      0.0000000E+00
   3.340000      0.0000000E+00
   3.350000      0.0000000E+00
   3.360000      0.0000000E+00
   3.370000      0.0000000E+00
   3.380000      0.0000000E+00
   3.390000      0.0000000E+00
   3.400000      0.0000000E+00
   3.410000      0.0000000E+00
   3.420000      0.0000000E+00
   3.430000      0.0000000E+00
   3.440000      0.0000000E+00
   3.450000      0.0000000E+00
   3.460000      0.0000000E+00
   3.470000      0.0000000E+00
   3.480000      0.0000000E+00
   3.490000      0.0000000E+00
   3.500000      0.0000000E+00
   3.510000      0.0000000E+00
   3.520000      0.0000000E+00
   3.530000      0.0000000E+00
   3.540000      0.0000000E+00
   3.550000      0.0000000E+00
   3.560000      0.0000000E+00
   3.570000      0.0000000E+00
   3.580000      0.0000000E+00
   3.590000      0.0000000E+00
   3.600000      0.0000000E+00
   3.610000      0.0000000E+00
   3.620000      0.0000000E+00
   3.630000      0.0000000E+00
   3.640000      0.0000000E+00
   3.650000      0.0000000E+00
   3.660000      0.0000000E+00
   3.670000      0.0000000E+00
   3.680000      0.0000000E+00
   3.690000      1.4783625E-38
   3.700000      1.8164299E-38
   3.710000      2.0284496E-38
   3.720000      2.3097746E-38
   3.730000      2.6908425E-38
   3.740000      3.1489573E-38
   3.750000      3.7022034E-38
   3.760000      4.3673829E-38
   3.770000      5.1581101E-38
   3.780000      6.1821914E-38
   3.790000      7.4110321E-38
   3.800000      8.5860270E-38
   3.810000      9.6773515E-38
   3.820000      1.0772991E-37
   3.830000      1.1767130E-37
   3.840000      1.2689834E-37
   3.850000      1.3675059E-37
   3.860000      1.4736188E-37
   3.870000      1.5885254E-37
   3.880000      1.7068207E-37
   3.890000      1.8503266E-37
   3.900000      2.0197749E-37
   3.910000      2.1874700E-37
   3.920000      2.3244434E-37
   3.930000      2.4270072E-37
   3.940000      2.5110614E-37
   3.950000      2.5716762E-37
   3.960000      2.5827444E-37
   3.970000      2.5361971E-37
   3.980000      2.4541081E-37
   3.990000      2.3732980E-37
   4.000000      2.3195380E-37
   4.010000      2.2731465E-37
   4.020000      2.2080950E-37
   4.030000      2.0852140E-37
   4.040000      1.8958346E-37
   4.050000      1.6699110E-37
   4.060000      1.4153603E-37
   4.070000      1.1185771E-37
   4.080000      7.3152017E-38
   4.090000      2.5203017E-38
   4.100000     -2.8539489E-38
   4.110000     -8.3915822E-38
   4.120000     -1.4010931E-37
   4.130000     -2.0153499E-37
   4.140000     -2.7059721E-37
   4.150000     -3.4891471E-37
   4.160000     -4.2655817E-37
   4.170000     -5.1248521E-37
   4.180000     -6.1380581E-37
   4.190000     -7.1892530E-37
   4.200000     -8.2662502E-37
   4.210000     -9.3787243E-37
   4.220000     -1.0528563E-36
   4.230000     -1.1680696E-36
   4.240000     -1.2753134E-36
   4.250000     -1.3756721E-36
   4.260000     -1.4748426E-36
   4.270000     -1.5555297E-36
   4.280000     -1.6201236E-36
   4.290000     -1.6848754E-36
   4.300000     -1.7453214E-36
   4.310000     -1.8046023E-36
   4.320000     -1.8874935E-36
   4.330000     -1.9957681E-36
   4.340000     -2.0773198E-36
   4.350000     -2.1258210E-36
   4.360000     -2.0576141E-36
   4.370000     -1.8510985E-36
   4.380000     -1.5536720E-36
   4.390000     -1.0092381E-36
   4.400000     -2.0159797E-37
   4.410000      7.7523400E-37
   4.420000      1.8952371E-36
   4.430000      3.1369922E-36
   4.440000      4.5001553E-36
   4.450000      5.9598575E-36
   4.460000      7.2741175E-36
   4.470000      8.2501379E-36
   4.480000      9.0225182E-36
   4.490000      9.7025881E-36
   4.500000      1.0249260E-35
   4.510000      1.0736843E-35
   4.520000      1.1281810E-35
   4.530000      1.1847524E-35
   4.540000      1.2391761E-35
   4.550000      1.2919392E-35
   4.560000      1.3433671E-35
   4.570000      1.3962933E-35
   4.580000      1.4304041E-35
   4.590000      1.4475718E-35
   4.600000      1.4625770E-35
   4.610000      1.4671716E-35
   4.620000      1.4698633E-35
   4.630000      1.4618759E-35
   4.640000      1.4384204E-35
   4.650000      1.4131075E-35
   4.660000      1.3923660E-35
   4.670000      1.3952733E-35
   4.680000      1.4080627E-35
   4.690000      1.4345106E-35
   4.700000      1.4780079E-35
   4.710000      1.5142854E-35
   4.720000      1.5619259E-35
   4.730000      1.6190278E-35
   4.740000      1.6773438E-35
   4.750000      1.7363092E-35
   4.760000      1.7702635E-35
   4.770000      1.7593819E-35
   4.780000      1.7007909E-35
   4.790000      1.5836397E-35
   4.800000      1.4032846E-35
   4.810000      1.1679645E-35
   4.820000      8.6002414E-36
   4.830000      4.6872726E-36
   4.840000      1.7191483E-37
   4.850000     -4.8783270E-36
   4.860000     -1.0507480E-35
   4.870000     -1.6582004E-35
   4.880000     -2.3753525E-35
   4.890000     -3.2057619E-35
   4.900000     -4.0704666E-35
   4.910000     -4.9522509E-35
   4.920000     -5.8488897E-35
   4.930000     -6.8316758E-35
   4.940000     -7.8857970E-35
   4.950000     -8.9225836E-35
   4.960000     -9.9427560E-35
   4.970000     -1.0968499E-34
   4.980000     -1.1874036E-34
   4.990000     -1.2592980E-34
   5.000000     -1.3218408E-34
   5.010000     -1.3777683E-34
   5.020000     -1.4200923E-34
   5.030000     -1.4398642E-34
   5.040000     -1.4435325E-34
   5.050000     -1.4425684E-34
   5.060000     -1.4442463E-34
   5.070000     -1.4484732E-34
   5.080000     -1.4465884E-34
   5.090000     -1.4413164E-34
   5.100000     -1.4418621E-34
   5.110000     -1.4450242E-34
   5.120000     -1.4451486E-34
   5.130000     -1.4510279E-34
   5.140000     -1.4755585E-34
   5.150000     -1.4923572E-34
   5.160000     -1.4724366E-34
   5.170000     -1.4221763E-34
   5.180000     -1.3538003E-34
   5.190000     -1.2723474E-34
   5.200000     -1.1752727E-34
   5.210000     -1.0619384E-34
   5.220000     -9.3385852E-35
   5.230000     -7.9352366E-35
   5.240000     -6.3765351E-35
   5.250000     -4.5146732E-35
   5.260000     -2.3294206E-35
   5.270000      8.5679720E-37
   5.280000      2.7241399E-35
   5.290000      5.6423184E-35
   5.300000      8.9062156E-35
   5.310000      1.2421226E-34
   5.320000      1.6225817E-34
   5.330000      2.0360928E-34
   5.340000      2.4718954E-34
   5.350000      2.9344348E-34
   5.360000      3.4326221E-34
   5.370000      3.9666956E-34
   5.380000      4.5232775E-34
   5.390000      5.0989079E-34
   5.400000      5.7033742E-34
   5.410000      6.3364297E-34
   5.420000      6.9765108E-34
   5.430000      7.5938629E-34
   5.440000      8.1948762E-34
   5.450000      8.8000639E-34
   5.460000      9.4059816E-34
   5.470000      9.9965784E-34
   5.480000      1.0609455E-33
   5.490000      1.1248711E-33
   5.500000      1.1891174E-33
   5.510000      1.2540116E-33
   5.520000      1.3171645E-33
   5.530000      1.3784001E-33
   5.540000      1.4362784E-33
   5.550000      1.4896122E-33
   5.560000      1.5368902E-33
   5.570000      1.5772067E-33
   5.580000      1.6099154E-33
   5.590000      1.6340889E-33
   5.600000      1.6507767E-33
   5.610000      1.6580412E-33
   5.620000      1.6547585E-33
   5.630000      1.6413272E-33
   5.640000      1.6176027E-33
   5.650000      1.5826400E-33
   5.660000      1.5338486E-33
   5.670000      1.4702816E-33
   5.680000      1.3898873E-33
   5.690000      1.2923738E-33
   5.700000      1.1789652E-33
   5.710000      1.0499734E-33
   5.720000      9.0327475E-34
   5.730000      7.3616890E-34
   5.740000      5.4963907E-34
   5.750000      3.4472967E-34
   5.760000      1.1998917E-34
   5.770000     -1.2517847E-34
   5.780000     -3.9369413E-34
   5.790000     -6.8927912E-34
   5.800000     -1.0116409E-33
   5.810000     -1.3612961E-33
   5.820000     -1.7363727E-33
   5.830000     -2.1383614E-33
   5.840000     -2.5695515E-33
   5.850000     -3.0280033E-33
   5.860000     -3.5146664E-33
   5.870000     -4.0295586E-33
   5.880000     -4.5702614E-33
   5.890000     -5.1362271E-33
   5.900000     -5.7280367E-33
   5.910000     -6.3459202E-33
   5.920000     -6.9891970E-33
   5.930000     -7.6565994E-33
   5.940000     -8.3469642E-33
   5.950000     -9.0590251E-33
   5.960000     -9.7910275E-33
   5.970000     -1.0539983E-32
   5.980000     -1.1303612E-32
   5.990000     -1.2079698E-32
   6.000000     -1.2863827E-32
   6.010000     -1.3651308E-32
   6.020000     -1.4438584E-32
   6.030000     -1.5222816E-32
   6.040000     -1.5999856E-32
   6.050000     -1.6762930E-32
   6.060000     -1.7505221E-32
   6.070000     -1.8221895E-32
   6.080000     -1.8906720E-32
   6.090000     -1.9552681E-32
   6.100000     -2.0152347E-32
   6.110000     -2.0699803E-32
   6.120000     -2.1185169E-32
   6.130000     -2.1597704E-32
   6.140000     -2.1930098E-32
   6.150000     -2.2174628E-32
   6.160000     -2.2322303E-32
   6.170000     -2.2363404E-32
   6.180000     -2.2288331E-32
   6.190000     -2.2085727E-32
   6.200000     -2.1745054E-32
   6.210000     -2.1255887E-32
   6.220000     -2.0608475E-32
   6.230000     -1.9789487E-32
   6.240000     -1.8785587E-32
   6.250000     -1.7585969E-32
   6.260000     -1.6178930E-32
   6.270000     -1.4552664E-32
   6.280000     -1.2695249E-32
   6.290000     -1.0595084E-32
   6.300000     -8.2400310E-33
   6.310000     -5.6178253E-33
   6.320000     -2.7170088E-33
   6.330000      4.7275908E-34
   6.340000      3.9611985E-33
   6.350000      7.7609068E-33
   6.360000      1.1882866E-32
   6.370000      1.6334686E-32
   6.380000      2.1125476E-32
   6.390000      2.6262572E-32
   6.400000      3.1750864E-32
   6.410000      3.7595407E-32
   6.420000      4.3800512E-32
   6.430000      5.0368440E-32
   6.440000      5.7299760E-32
   6.450000      6.4593038E-32
   6.460000      7.2244778E-32
   6.470000      8.0249730E-32
   6.480000      8.8600841E-32
   6.490000      9.7289379E-32
   6.500000      1.0630303E-31
   6.510000      1.1562584E-31
   6.520000      1.2524015E-31
   6.530000      1.3512500E-31
   6.540000      1.4525645E-31
   6.550000      1.5560786E-31
   6.560000      1.6614945E-31
   6.570000      1.7684727E-31
   6.580000      1.8766299E-31
   6.590000      1.9855531E-31
   6.600000      2.0947885E-31
   6.610000      2.2038370E-31
   6.620000      2.3121595E-31
   6.630000      2.4191756E-31
   6.640000      2.5242601E-31
   6.650000      2.6267423E-31
   6.660000      2.7259030E-31
   6.670000      2.8209800E-31
   6.680000      2.9111630E-31
   6.690000      2.9955903E-31
   6.700000      3.0733547E-31
   6.710000      3.1435018E-31
   6.720000      3.2050253E-31
   6.730000      3.2568707E-31
   6.740000      3.2979392E-31
   6.750000      3.3270858E-31
   6.760000      3.3431160E-31
   6.770000      3.3447944E-31
   6.780000      3.3308448E-31
   6.790000      3.2999502E-31
   6.800000      3.2507577E-31
   6.810000      3.1818798E-31
   6.820000      3.0919000E-31
   6.830000      2.9793758E-31
   6.840000      2.8428419E-31
   6.850000      2.6808164E-31
   6.860000      2.4918070E-31
   6.870000      2.2743157E-31
   6.880000      2.0268445E-31
   6.890000      1.7479029E-31
   6.900000      1.4360161E-31
   6.910000      1.0897300E-31
   6.920000      7.0762062E-32
   6.930000      2.8830727E-32
   6.940000     -1.6954284E-32
   6.950000     -6.6720601E-32
   6.960000     -1.2058859E-31
   6.970000     -1.7867065E-31
   6.980000     -2.4107012E-31
   6.990000     -3.0787977E-31
   7.000000     -3.7918074E-31
   7.010000     -4.5504120E-31
   7.020000     -5.3551479E-31
   7.030000     -6.2063962E-31
   7.040000     -7.1043653E-31
   7.050000     -8.0490763E-31
   7.060000     -9.0403481E-31