  -2.600000      0.0000000E+00
  -2.590000      0.0000000E+00
  -2.580000      0.0000000E+00
  -2.570000      0.0000000E+00
  -2.560000      0.0000000E+00
  -2.550000      0.0000000E+00
  -2.540000      0.0000000E+00
  -2.530000      0.0000000E+00
  -2.520000      0.0000000E+00
  -2.510000      0.0000000E+00
  -2.500000      0.0000000E+00
  -2.490000      0.0000000E+00
  -2.480000      0.0000000E+00
  -2.470000      0.0000000E+00
  -2.460000      0.0000000E+00
  -2.450000      0.0000000E+00
  -2.440000      0.0000000E+00
  -2.430000      0.0000000E+00
  -2.420000      0.0000000E+00
  -2.410000      0.0000000E+00
  -2.400000      0.0000000E+00
  -2.390000      0.0000000E+00
  -2.380000      0.0000000E+00
  -2.370000      0.0000000E+00
  -2.360000      0.0000000E+00
  -2.350000      0.0000000E+00
  -2.340000      0.0000000E+00
  -2.330000      0.0000000E+00
  -2.320000      0.0000000E+00
  -2.310000      0.0000000E+00
  -2.300000      0.0000000E+00
  -2.290000      0.0000000E+00
  -2.280000      0.0000000E+00
  -2.270000      0.0000000E+00
  -2.260000      0.0000000E+00
  -2.250000      0.0000000E+00
  -2.240000      0.0000000E+00
  -2.230000      0.0000000E+00
  -2.220000      0.0000000E+00
  -2.210000      0.0000000E+00
  -2.200000      0.0000000E+00
  -2.190000      0.0000000E+00
  -2.180000      0.0000000E+00
  -2.170000      0.0000000E+00
  -2.160000      0.0000000E+00
  -2.150000      0.0000000E+00
  -2.140000      0.0000000E+00
  -2.130000      0.0000000E+00
  -2.120000      0.0000000E+00
  -2.110000      0.0000000E+00
  -2.100000      0.0000000E+00
  -2.090000      0.0000000E+00
  -2.080000      0.0000000E+00
  -2.070000      0.0000000E+00
  -2.060000      0.0000000E+00
  -2.050000      0.0000000E+00
  -2.040000      0.0000000E+00
  -2.030000      0.0000000E+00
  -2.020000      0.0000000E+00
  -2.010000      0.0000000E+00
  -2.000000      0.0000000E+00
  -1.990000      0.0000000E+00
  -1.980000      0.0000000E+00
  -1.970000      0.0000000E+00
  -1.960000      0.0000000E+00
  -1.950000      0.0000000E+00
  -1.940000      0.0000000E+00
  -1.930000      0.0000000E+00
  -1.920000      0.0000000E+00
  -1.910000      0.0000000E+00
  -1.900000      0.0000000E+00
  -1.890000      0.0000000E+00
  -1.880000      0.0000000E+00
  -1.870000      0.0000000E+00
  -1.860000      0.0000000E+00
  -1.850000      0.0000000E+00
  -1.840000      0.0000000E+00
  -1.830000      0.0000000E+00
  -1.820000      0.0000000E+00
  -1.810000      0.0000000E+00
  -1.800000      0.0000000E+00
  -1.790000      0.0000000E+00
  -1.780000      0.0000000E+00
  -1.770000      0.0000000E+00
  -1.760000      0.0000000E+00
  -1.750000      0.0000000E+00
  -1.740000      0.0000000E+00
  -1.730000      0.0000000E+00
  -1.720000      0.0000000E+00
  -1.710000      0.0000000E+00
  -1.700000      0.0000000E+00
  -1.690000      0.0000000E+00
  -1.680000      0.0000000E+00
  -1.670000      0.0000000E+00
  -1.660000      0.0000000E+00
  -1.650000      0.0000000E+00
  -1.640000      0.0000000E+00
  -1.630000      0.0000000E+00
  -1.620000      0.0000000E+00
  -1.610000      0.0000000E+00
  -1.600000      0.0000000E+00
  -1.590000      0.0000000E+00
  -1.580000      0.0000000E+00
  -1.570000      0.0000000E+00
  -1.560000      0.0000000E+00
  -1.550000      0.0000000E+00
  -1.540000      0.0000000E+00
  -1.530000      0.0000000E+00
  -1.520000      0.0000000E+00
  -1.510000      0.0000000E+00
  -1.500000      0.0000000E+00
  -1.490000      0.0000000E+00
  -1.480000      0.0000000E+00
  -1.470000      0.0000000E+00
  -1.460000      0.0000000E+00
  -1.450000      0.0000000E+00
  -1.440000      0.0000000E+00
  -1.430000      0.0000000E+00
  -1.420000      0.0000000E+00
  -1.410000      0.0000000E+00
  -1.400000      0.0000000E+00
  -1.390000      0.0000000E+00
  -1.380000      0.0000000E+00
  -1.370000      0.0000000E+00
  -1.360000      0.0000000E+00
  -1.350000      0.0000000E+00
  -1.340000      0.0000000E+00
  -1.330000      0.0000000E+00
  -1.320000      0.0000000E+00
  -1.310000      0.0000000E+00
  -1.300000      0.0000000E+00
  -1.290000      0.0000000E+00
  -1.280000      0.0000000E+00
  -1.270000      0.0000000E+00
  -1.260000      0.0000000E+00
  -1.250000      0.0000000E+00
  -1.240000      0.0000000E+00
  -1.230000      0.0000000E+00
  -1.220000      0.0000000E+00
  -1.210000      0.0000000E+00
  -1.200000      0.0000000E+00
  -1.190000      0.0000000E+00
  -1.180000      0.0000000E+00
  -1.170000      0.0000000E+00
  -1.160000      0.0000000E+00
  -1.150000      0.0000000E+00
  -1.140000      0.0000000E+00
  -1.130000      0.0000000E+00
  -1.120000      0.0000000E+00
  -1.110000      0.0000000E+00
  -1.100000      0.0000000E+00
  -1.090000      0.0000000E+00
  -1.080000      0.0000000E+00
  -1.070000      0.0000000E+00
  -1.060000      0.0000000E+00
  -1.050000      0.0000000E+00
  -1.040000      0.0000000E+00
  -1.030000      0.0000000E+00
  -1.020000      0.0000000E+00
  -1.010000      0.0000000E+00
  -1.000000      0.0000000E+00
 -0.9900000      0.0000000E+00
 -0.9800000      0.0000000E+00
 -0.9700000      0.0000000E+00
 -0.9600000      0.0000000E+00
 -0.9500000      0.0000000E+00
 -0.9400000      0.0000000E+00
 -0.9300000      0.0000000E+00
 -0.9200000      0.0000000E+00
 -0.9100000      0.0000000E+00
 -0.9000000      0.0000000E+00
 -0.8900000      0.0000000E+00
 -0.8800000      0.0000000E+00
 -0.8700000      0.0000000E+00
 -0.8600000      0.0000000E+00
 -0.8500000      0.0000000E+00
 -0.8400000      0.0000000E+00
 -0.8300000      0.0000000E+00
 -0.8200000      0.0000000E+00
 -0.8100000      0.0000000E+00
 -0.8000000      0.0000000E+00
 -0.7900000      0.0000000E+00
 -0.7800000      0.0000000E+00
 -0.7700000      0.0000000E+00
 -0.7600000      0.0000000E+00
 -0.7500000      0.0000000E+00
 -0.7400000      0.0000000E+00
 -0.7300000      0.0000000E+00
 -0.7200000      0.0000000E+00
 -0.7100000      0.0000000E+00
 -0.7000000      0.0000000E+00
 -0.6900000      0.0000000E+00
 -0.6800000      0.0000000E+00
 -0.6700000      0.0000000E+00
 -0.6600000      0.0000000E+00
 -0.6500000      0.0000000E+00
 -0.6400000      0.0000000E+00
 -0.6300000      0.0000000E+00
 -0.6200000      0.0000000E+00
 -0.6100000      0.0000000E+00
 -0.6000000      0.0000000E+00
 -0.5900000      0.0000000E+00
 -0.5800000      0.0000000E+00
 -0.5700000      0.0000000E+00
 -0.5600000      0.0000000E+00
 -0.5500000      0.0000000E+00
 -0.5400000      0.0000000E+00
 -0.5300000      0.0000000E+00
 -0.5200000      0.0000000E+00
 -0.5100000      0.0000000E+00
 -0.5000000      0.0000000E+00
 -0.4900000      0.0000000E+00
 -0.4800000      0.0000000E+00
 -0.4700000      0.0000000E+00
 -0.4600000      0.0000000E+00
 -0.4500000      0.0000000E+00
 -0.4400000      0.0000000E+00
 -0.4300000      0.0000000E+00
 -0.4200000      0.0000000E+00
 -0.4100000      0.0000000E+00
 -0.4000000      0.0000000E+00
 -0.3900000      0.0000000E+00
 -0.3800000      0.0000000E+00
 -0.3700000      0.0000000E+00
 -0.3600000      0.0000000E+00
 -0.3500000      0.0000000E+00
 -0.3400000      0.0000000E+00
 -0.3300000      0.0000000E+00
 -0.3200000      0.0000000E+00
 -0.3100000      0.0000000E+00
 -0.3000000      0.0000000E+00
 -0.2900000      0.0000000E+00
 -0.2800000      0.0000000E+00
 -0.2700000      0.0000000E+00
 -0.2600000      0.0000000E+00
 -0.2500000      0.0000000E+00
 -0.2400000      0.0000000E+00
 -0.2300000      0.0000000E+00
 -0.2200000      0.0000000E+00
 -0.2100000      0.0000000E+00
 -0.2000000      0.0000000E+00
 -0.1900000      0.0000000E+00
 -0.1800000      0.0000000E+00
 -0.1700000      0.0000000E+00
 -0.1600000      0.0000000E+00
 -0.1500000      0.0000000E+00
 -0.1400000      0.0000000E+00
 -0.1300000      0.0000000E+00
 -0.1200000      0.0000000E+00
 -0.1100000      0.0000000E+00
 -0.1000000      0.0000000E+00
 -9.0000004E-02  0.0000000E+00
 -7.9999998E-02  0.0000000E+00
 -7.0000000E-02  0.0000000E+00
 -5.9999999E-02  0.0000000E+00
 -5.0000001E-02  0.0000000E+00
 -3.9999999E-02  0.0000000E+00
 -2.9999999E-02  0.0000000E+00
 -2.0000000E-02  0.0000000E+00
 -9.9999998E-03  0.0000000E+00
 -3.4694470E-17  0.0000000E+00
  9.9999998E-03  0.0000000E+00
  2.0000000E-02  0.0000000E+00
  2.9999999E-02  0.0000000E+00
  3.9999999E-02  0.0000000E+00
  5.0000001E-02  0.0000000E+00
  5.9999999E-02  0.0000000E+00
  7.0000000E-02  0.0000000E+00
  7.9999998E-02  0.0000000E+00
  9.0000004E-02  0.0000000E+00
  0.1000000      0.0000000E+00
  0.1100000      0.0000000E+00
  0.1200000      0.0000000E+00
  0.1300000      0.0000000E+00
  0.1400000      0.0000000E+00
  0.1500000      0.0000000E+00
  0.1600000      0.0000000E+00
  0.1700000      0.0000000E+00
  0.1800000      0.0000000E+00
  0.1900000      0.0000000E+00
  0.2000000      0.0000000E+00
  0.2100000      0.0000000E+00
  0.2200000      0.0000000E+00
  0.2300000      0.0000000E+00
  0.2400000      0.0000000E+00
  0.2500000      0.0000000E+00
  0.2600000      0.0000000E+00
  0.2700000      0.0000000E+00
  0.2800000      0.0000000E+00
  0.2900000      0.0000000E+00
  0.3000000      0.0000000E+00
  0.3100000      0.0000000E+00
  0.3200000      0.0000000E+00
  0.3300000      0.0000000E+00
  0.3400000      0.0000000E+00
  0.3500000      0.0000000E+00
  0.3600000      0.0000000E+00
  0.3700000      0.0000000E+00
  0.3800000      0.0000000E+00
  0.3900000      0.0000000E+00
  0.4000000      0.0000000E+00
  0.4100000      0.0000000E+00
  0.4200000      0.0000000E+00
  0.4300000      0.0000000E+00
  0.4400000      0.0000000E+00
  0.4500000      0.0000000E+00
  0.4600000      0.0000000E+00
  0.4700000      0.0000000E+00
  0.4800000      0.0000000E+00
  0.4900000      0.0000000E+00
  0.5000000      0.0000000E+00
  0.5100000      0.0000000E+00
  0.5200000      0.0000000E+00
  0.5300000      0.0000000E+00
  0.5400000      0.0000000E+00
  0.5500000      0.0000000E+00
  0.5600000      0.0000000E+00
  0.5700000      0.0000000E+00
  0.5800000      0.0000000E+00
  0.5900000      0.0000000E+00
  0.6000000      0.0000000E+00
  0.6100000      0.0000000E+00
  0.6200000      0.0000000E+00
  0.6300000      0.0000000E+00
  0.6400000      0.0000000E+00
  0.6500000      0.0000000E+00
  0.6600000      0.0000000E+00
  0.6700000      0.0000000E+00
  0.6800000      0.0000000E+00
  0.6900000      0.0000000E+00
  0.7000000      0.0000000E+00
  0.7100000      0.0000000E+00
  0.7200000      0.0000000E+00
  0.7300000      0.0000000E+00
  0.7400000      0.0000000E+00
  0.7500000      0.0000000E+00
  0.7600000      0.0000000E+00
  0.7700000      0.0000000E+00
  0.7800000      0.0000000E+00
  0.7900000      0.0000000E+00
  0.8000000      0.0000000E+00
  0.8100000      0.0000000E+00
  0.8200000      0.0000000E+00
  0.8300000      0.0000000E+00
  0.8400000      0.0000000E+00
  0.8500000      0.0000000E+00
  0.8600000      0.0000000E+00
  0.8700000      0.0000000E+00
  0.8800000      0.0000000E+00
  0.8900000      0.0000000E+00
  0.9000000      0.0000000E+00
  0.9100000      0.0000000E+00
  0.9200000      0.0000000E+00
  0.9300000      0.0000000E+00
  0.9400000      0.0000000E+00
  0.9500000      0.0000000E+00
  0.9600000      0.0000000E+00
  0.9700000      0.0000000E+00
  0.9800000      0.0000000E+00
  0.9900000      0.0000000E+00
   1.000000      0.0000000E+00
   1.010000      0.0000000E+00
   1.020000      0.0000000E+00
   1.030000      0.0000000E+00
   1.040000      0.0000000E+00
   1.050000      0.0000000E+00
   1.060000      0.0000000E+00
   1.070000      0.0000000E+00
   1.080000      0.0000000E+00
   1.090000      0.0000000E+00
   1.100000      0.0000000E+00
   1.110000      0.0000000E+00
   1.120000      0.0000000E+00
   1.130000      0.0000000E+00
   1.140000      0.0000000E+00
   1.150000      0.0000000E+00
   1.160000      0.0000000E+00
   1.170000      0.0000000E+00
   1.180000      0.0000000E+00
   1.190000      0.0000000E+00
   1.200000      0.0000000E+00
   1.210000      0.0000000E+00
   1.220000      0.0000000E+00
   1.230000      0.0000000E+00
   1.240000      0.0000000E+00
   1.250000      0.0000000E+00
   1.260000      0.0000000E+00
   1.270000      0.0000000E+00
   1.280000      0.0000000E+00
   1.290000      0.0000000E+00
   1.300000      0.0000000E+00
   1.310000      0.0000000E+00
   1.320000      0.0000000E+00
   1.330000      0.0000000E+00
   1.340000      0.0000000E+00
   1.350000      0.0000000E+00
   1.360000      0.0000000E+00
   1.370000      0.0000000E+00
   1.380000      0.0000000E+00
   1.390000      0.0000000E+00
   1.400000      0.0000000E+00
   1.410000      0.0000000E+00
   1.420000      0.0000000E+00
   1.430000      0.0000000E+00
   1.440000      0.0000000E+00
   1.450000      0.0000000E+00
   1.460000      0.0000000E+00
   1.470000      0.0000000E+00
   1.480000      0.0000000E+00
   1.490000      0.0000000E+00
   1.500000      0.0000000E+00
   1.510000      0.0000000E+00
   1.520000      0.0000000E+00
   1.530000      0.0000000E+00
   1.540000      0.0000000E+00
   1.550000      0.0000000E+00
   1.560000      0.0000000E+00
   1.570000      0.0000000E+00
   1.580000      0.0000000E+00
   1.590000      0.0000000E+00
   1.600000      0.0000000E+00
   1.610000      0.0000000E+00
   1.620000      0.0000000E+00
   1.630000      0.0000000E+00
   1.640000      0.0000000E+00
   1.650000      0.0000000E+00
   1.660000      0.0000000E+00
   1.670000      0.0000000E+00
   1.680000      0.0000000E+00
   1.690000      0.0000000E+00
   1.700000      0.0000000E+00
   1.710000      0.0000000E+00
   1.720000      0.0000000E+00
   1.730000      0.0000000E+00
   1.740000      0.0000000E+00
   1.750000      0.0000000E+00
   1.760000      0.0000000E+00
   1.770000      0.0000000E+00
   1.780000      0.0000000E+00
   1.790000      0.0000000E+00
   1.800000      0.0000000E+00
   1.810000      0.0000000E+00
   1.820000      0.0000000E+00
   1.830000      0.0000000E+00
   1.840000      0.0000000E+00
   1.850000      0.0000000E+00
   1.860000      0.0000000E+00
   1.870000      0.0000000E+00
   1.880000      0.0000000E+00
   1.890000      0.0000000E+00
   1.900000      0.0000000E+00
   1.910000      0.0000000E+00
   1.920000      0.0000000E+00
   1.930000      0.0000000E+00
   1.940000      0.0000000E+00
   1.950000      0.0000000E+00
   1.960000      0.0000000E+00
   1.970000      0.0000000E+00
   1.980000      0.0000000E+00
   1.990000      0.0000000E+00
   2.000000      0.0000000E+00
   2.010000      0.0000000E+00
   2.020000      0.0000000E+00
   2.030000      0.0000000E+00
   2.040000      0.0000000E+00
   2.050000      0.0000000E+00
   2.060000      0.0000000E+00
   2.070000      0.0000000E+00
   2.080000      0.0000000E+00
   2.090000      0.0000000E+00
   2.100000      0.0000000E+00
   2.110000      0.0000000E+00
   2.120000      0.0000000E+00
   2.130000      0.0000000E+00
   2.140000      0.0000000E+00
   2.150000      0.0000000E+00
   2.160000      0.0000000E+00
   2.170000      0.0000000E+00
   2.180000      0.0000000E+00
   2.190000      0.0000000E+00
   2.200000      0.0000000E+00
   2.210000      0.0000000E+00
   2.220000      0.0000000E+00
   2.230000      0.0000000E+00
   2.240000      0.0000000E+00
   2.250000      0.0000000E+00
   2.260000      0.0000000E+00
   2.270000      0.0000000E+00
   2.280000      0.0000000E+00
   2.290000      0.0000000E+00
   2.300000      0.0000000E+00
   2.310000      0.0000000E+00
   2.320000      0.0000000E+00
   2.330000      0.0000000E+00
   2.340000      0.0000000E+00
   2.350000      0.0000000E+00
   2.360000      0.0000000E+00
   2.370000      0.0000000E+00
   2.380000      0.0000000E+00
   2.390000      0.0000000E+00
   2.400000      0.0000000E+00
   2.410000      0.0000000E+00
   2.420000      0.0000000E+00
   2.430000      0.0000000E+00
   2.440000      0.0000000E+00
   2.450000      0.0000000E+00
   2.460000      0.0000000E+00
   2.470000      0.0000000E+00
   2.480000      0.0000000E+00
   2.490000      0.0000000E+00
   2.500000      0.0000000E+00
   2.510000      0.0000000E+00
   2.520000      0.0000000E+00
   2.530000      0.0000000E+00
   2.540000      0.0000000E+00
   2.550000      0.0000000E+00
   2.560000      0.0000000E+00
   2.570000      0.0000000E+00
   2.580000      0.0000000E+00
   2.590000      0.0000000E+00
   2.600000      0.0000000E+00
   2.610000      0.0000000E+00
   2.620000      0.0000000E+00
   2.630000      0.0000000E+00
   2.640000      0.0000000E+00
   2.650000      0.0000000E+00
   2.660000      0.0000000E+00
   2.670000      0.0000000E+00
   2.680000      0.0000000E+00
   2.690000      0.0000000E+00
   2.700000      0.0000000E+00
   2.710000      0.0000000E+00
   2.720000      0.0000000E+00
   2.730000      0.0000000E+00
   2.740000      0.0000000E+00
   2.750000      0.0000000E+00
   2.760000      0.0000000E+00
   2.770000      0.0000000E+00
   2.780000      0.0000000E+00
   2.790000      0.0000000E+00
   2.800000      0.0000000E+00
   2.810000      0.0000000E+00
   2.820000      0.0000000E+00
   2.830000      0.0000000E+00
   2.840000      0.0000000E+00
   2.850000      0.0000000E+00
   2.860000      0.0000000E+00
   2.870000      0.0000000E+00
   2.880000      0.0000000E+00
   2.890000      0.0000000E+00
   2.900000      0.0000000E+00
   2.910000      0.0000000E+00
   2.920000      0.0000000E+00
   2.930000      0.0000000E+00
   2.940000      0.0000000E+00
   2.950000      0.0000000E+00
   2.960000      0.0000000E+00
   2.970000      0.0000000E+00
   2.980000      0.0000000E+00
   2.990000      0.0000000E+00
   3.000000      0.0000000E+00
   3.010000      0.0000000E+00
   3.020000      0.0000000E+00
   3.030000      0.0000000E+00
   3.040000      0.0000000E+00
   3.050000      0.0000000E+00
   3.060000      0.0000000E+00
   3.070000      0.0000000E+00
   3.080000      0.0000000E+00
   3.090000      0.0000000E+00
   3.100000      0.0000000E+00
   3.110000      0.0000000E+00
   3.120000      0.0000000E+00
   3.130000      0.0000000E+00
   3.140000      0.0000000E+00
   3.150000      0.0000000E+00
   3.160000      0.0000000E+00
   3.170000      0.0000000E+00
   3.180000      0.0000000E+00
   3.190000      0.0000000E+00
   3.200000      0.0000000E+00
   3.210000      0.0000000E+00
   3.220000      0.0000000E+00
   3.230000      0.0000000E+00
   3.240000      0.0000000E+00
   3.250000      0.0000000E+00
   3.260000      0.0000000E+00
   3.270000      0.0000000E+00
   3.280000      0.0000000E+00
   3.290000      0.0000000E+00
   3.300000      0.0000000E+00
   3.310000      0.0000000E+00
   3.320000      0.0000000E+00
   3.330000      0.0000000E+00
   3.340000      0.0000000E+00
   3.350000      0.0000000E+00
   3.360000      0.0000000E+00
   3.370000      0.0000000E+00
   3.380000      0.0000000E+00
   3.390000      0.0000000E+00
   3.400000      0.0000000E+00
   3.410000      0.0000000E+00
   3.420000      0.0000000E+00
   3.430000      0.0000000E+00
   3.440000      0.0000000E+00
   3.450000      0.0000000E+00
   3.460000      0.0000000E+00
   3.470000      0.0000000E+00
   3.480000      0.0000000E+00
   3.490000      0.0000000E+00
   3.500000      0.0000000E+00
   3.510000      0.0000000E+00
   3.520000      1.5537111E-38
   3.530000      2.0327437E-38
   3.540000      2.4890808E-38
   3.550000      2.9048813E-38
   3.560000      3.1883724E-38
   3.570000      3.3723621E-38
   3.580000      3.5754038E-38
   3.590000      3.7981152E-38
   3.600000      4.0411646E-38
   3.610000      4.3051204E-38
   3.620000      4.5902945E-38
   3.630000      4.9572351E-38
   3.640000      5.4142938E-38
   3.650000      5.9090839E-38
   3.660000      6.3059653E-38
   3.670000      6.5775812E-38
   3.680000      6.8400495E-38
   3.690000      7.1095477E-38
   3.700000      7.4007219E-38
   3.710000      7.7252671E-38
   3.720000      8.0931909E-38
   3.730000      8.5128108E-38
   3.740000      8.7841930E-38
   3.750000      8.8403587E-38
   3.760000      8.8131937E-38
   3.770000      8.6936792E-38
   3.780000      8.3535863E-38
   3.790000      7.7439004E-38
   3.800000      6.9124624E-38
   3.810000      5.9956472E-38
   3.820000      4.9551791E-38
   3.830000      3.6280834E-38
   3.840000      2.0813224E-38
   3.850000      0.0000000E+00
   3.860000      0.0000000E+00
   3.870000     -2.6528511E-38
   3.880000     -4.4158474E-38
   3.890000     -6.4892075E-38
   3.900000     -8.8278978E-38
   3.910000     -1.1310341E-37
   3.920000     -1.3973168E-37
   3.930000     -1.6071770E-37
   3.940000     -1.7865714E-37
   3.950000     -2.0139287E-37
   3.960000     -2.2763022E-37
   3.970000     -2.5879263E-37
   3.980000     -2.9412972E-37
   3.990000     -3.3312696E-37
   4.000000     -3.7781163E-37
   4.010000     -4.3171095E-37
   4.020000     -4.9352669E-37
   4.030000     -5.5932274E-37
   4.040000     -6.2789543E-37
   4.050000     -7.0014100E-37
   4.060000     -7.7256342E-37
   4.070000     -8.4437456E-37
   4.080000     -9.1940434E-37
   4.090000     -9.9730730E-37
   4.100000     -1.0782264E-36
   4.110000     -1.1622642E-36
   4.120000     -1.2494909E-36
   4.130000     -1.3367748E-36
   4.140000     -1.4189069E-36
   4.150000     -1.4994300E-36
   4.160000     -1.5907772E-36
   4.170000     -1.6939610E-36
   4.180000     -1.8042131E-36
   4.190000     -1.9162637E-36
   4.200000     -2.0264778E-36
   4.210000     -2.1306228E-36
   4.220000     -2.2354132E-36
   4.230000     -2.4014467E-36
   4.240000     -2.6270442E-36
   4.250000     -2.9967411E-36
   4.260000     -3.5092226E-36
   4.270000     -4.0404027E-36
   4.280000     -4.6007611E-36
   4.290000     -5.1745722E-36
   4.300000     -5.7552796E-36
   4.310000     -6.0470245E-36
   4.320000     -6.0542371E-36
   4.330000     -6.0517626E-36
   4.340000     -5.9851230E-36
   4.350000     -5.4708224E-36
   4.360000     -4.5044880E-36
   4.370000     -3.4577356E-36
   4.380000     -2.3292287E-36
   4.390000     -1.1358239E-36
   4.400000      9.8807819E-38
   4.410000      1.2845538E-36
   4.420000      2.3749391E-36
   4.430000      3.4100249E-36
   4.440000      4.4146514E-36
   4.450000      5.3497358E-36
   4.460000      6.1869782E-36
   4.470000      6.8183443E-36
   4.480000      7.2966824E-36
   4.490000      7.8440988E-36
   4.500000      8.4579731E-36
   4.510000      9.1128363E-36
   4.520000      9.7429081E-36
   4.530000      1.0349412E-35
   4.540000      1.0986570E-35
   4.550000      1.1476205E-35
   4.560000      1.1747052E-35
   4.570000      1.1887631E-35
   4.580000      1.2004969E-35
   4.590000      1.2402971E-35
   4.600000      1.3116111E-35
   4.610000      1.3897549E-35
   4.620000      1.4553164E-35
   4.630000      1.5239641E-35
   4.640000      1.6204957E-35
   4.650000      1.7364091E-35
   4.660000      1.8759900E-35
   4.670000      2.0554342E-35
   4.680000      2.2584014E-35
   4.690000      2.4705835E-35
   4.700000      2.6650018E-35
   4.710000      2.8481855E-35
   4.720000      3.0269310E-35
   4.730000      3.1815894E-35
   4.740000      3.3017696E-35
   4.750000      3.3940649E-35
   4.760000      3.4600022E-35
   4.770000      3.4682837E-35
   4.780000      3.4056178E-35
   4.790000      3.2724908E-35
   4.800000      3.0993897E-35
   4.810000      2.8745325E-35
   4.820000      2.5758884E-35
   4.830000      2.2041515E-35
   4.840000      1.7546901E-35
   4.850000      1.2381824E-35
   4.860000      6.4154728E-36
   4.870000     -2.4803898E-37
   4.880000     -7.2999383E-36
   4.890000     -1.4666213E-35
   4.900000     -2.2102980E-35
   4.910000     -2.9583155E-35
   4.920000     -3.7472128E-35
   4.930000     -4.5667531E-35
   4.940000     -5.3953538E-35
   4.950000     -6.2440561E-35
   4.960000     -7.0870262E-35
   4.970000     -7.8988514E-35
   4.980000     -8.7107868E-35
   4.990000     -9.5466218E-35
   5.000000     -1.0387389E-34
   5.010000     -1.1213107E-34
   5.020000     -1.2017982E-34
   5.030000     -1.2816217E-34
   5.040000     -1.3602678E-34
   5.050000     -1.4497744E-34
   5.060000     -1.5661949E-34
   5.070000     -1.6957442E-34
   5.080000     -1.8368193E-34
   5.090000     -1.9901725E-34
   5.100000     -2.1039413E-34
   5.110000     -2.1762460E-34
   5.120000     -2.2425197E-34
   5.130000     -2.3037492E-34
   5.140000     -2.3588354E-34
   5.150000     -2.4010418E-34
   5.160000     -2.4214926E-34
   5.170000     -2.4208482E-34
   5.180000     -2.4037236E-34
   5.190000     -2.3556744E-34
   5.200000     -2.2735213E-34
   5.210000     -2.1675080E-34
   5.220000     -2.0380634E-34
   5.230000     -1.8684928E-34
   5.240000     -1.6614461E-34
   5.250000     -1.4336993E-34
   5.260000     -1.1805661E-34
   5.270000     -9.0411948E-35
   5.280000     -6.0843456E-35
   5.290000     -2.8059354E-35
   5.300000      8.5983042E-36
   5.310000      4.7982695E-35
   5.320000      9.0589530E-35
   5.330000      1.3916198E-34
   5.340000      1.9452126E-34
   5.350000      2.5692649E-34
   5.360000      3.2337149E-34
   5.370000      3.9218886E-34
   5.380000      4.6619431E-34
   5.390000      5.4136736E-34
   5.400000      6.1706837E-34
   5.410000      6.9527387E-34
   5.420000      7.7622364E-34
   5.430000      8.6240161E-34
   5.440000      9.5457938E-34
   5.450000      1.0502931E-33
   5.460000      1.1473119E-33
   5.470000      1.2476892E-33
   5.480000      1.3520432E-33
   5.490000      1.4589771E-33
   5.500000      1.5676352E-33
   5.510000      1.6780768E-33
   5.520000      1.7904419E-33
   5.530000      1.9025797E-33
   5.540000      2.0142248E-33
   5.550000      2.1250460E-33
   5.560000      2.2327294E-33
   5.570000      2.3362102E-33
   5.580000      2.4334970E-33
   5.590000      2.5239728E-33
   5.600000      2.6072397E-33
   5.610000      2.6815138E-33
   5.620000      2.7463605E-33
   5.630000      2.8017103E-33
   5.640000      2.8485892E-33
   5.650000      2.8871914E-33
   5.660000      2.9125914E-33
   5.670000      2.9208136E-33
   5.680000      2.9110159E-33
   5.690000      2.8812647E-33
   5.700000      2.8288262E-33
   5.710000      2.7516697E-33
   5.720000      2.6507190E-33
   5.730000      2.5266601E-33
   5.740000      2.3760471E-33
   5.750000      2.1937144E-33
   5.760000      1.9774181E-33
   5.770000      1.7263181E-33
   5.780000      1.4394221E-33
   5.790000      1.1151217E-33
   5.800000      7.5036460E-34
   5.810000      3.4242607E-34
   5.820000     -1.1065316E-34
   5.830000     -6.0877934E-34
   5.840000     -1.1524318E-33
   5.850000     -1.7449225E-33
   5.860000     -2.3872136E-33
   5.870000     -3.0785585E-33
   5.880000     -3.8224810E-33
   5.890000     -4.6218921E-33
   5.900000     -5.4761198E-33
   5.910000     -6.3858481E-33
   5.920000     -7.3506608E-33
   5.930000     -8.3695521E-33
   5.940000     -9.4419497E-33
   5.950000     -1.0566415E-32
   5.960000     -1.1742433E-32
   5.970000     -1.2967041E-32
   5.980000     -1.4239417E-32
   5.990000     -1.5557481E-32
   6.000000     -1.6915261E-32
   6.010000     -1.8311072E-32
   6.020000     -1.9740747E-32
   6.030000     -2.1198139E-32
   6.040000     -2.2680372E-32
   6.050000     -2.4183204E-32
   6.060000     -2.5698763E-32
   6.070000     -2.7218795E-32
   6.080000     -2.8737193E-32
   6.090000     -3.0248238E-32
   6.100000     -3.1742794E-32
   6.110000     -3.3209435E-32
   6.120000     -3.4639147E-32
   6.130000     -3.6022102E-32
   6.140000     -3.7347263E-32
   6.150000     -3.8601836E-32
   6.160000     -3.9771732E-32
   6.170000     -4.0843403E-32
   6.180000     -4.1802951E-32
   6.190000     -4.2633893E-32
   6.200000     -4.3320655E-32
   6.210000     -4.3845493E-32
   6.220000     -4.4189930E-32
   6.230000     -4.4335036E-32
   6.240000     -4.4261092E-32
   6.250000     -4.3948766E-32
   6.260000     -4.3375092E-32
   6.270000     -4.2517986E-32
   6.280000     -4.1355934E-32
   6.290000     -3.9867164E-32
   6.300000     -3.8027912E-32
   6.310000     -3.5814007E-32
   6.320000     -3.3202144E-32
   6.330000     -3.0169080E-32
   6.340000     -2.6691186E-32
   6.350000     -2.2745196E-32
   6.360000     -1.8308063E-32
   6.370000     -1.3356953E-32
   6.380000     -7.8700860E-33
   6.390000     -1.8265987E-33
   6.400000      4.7943779E-33
   6.410000      1.2012606E-32
   6.420000      1.9845557E-32
   6.430000      2.8310641E-32
   6.440000      3.7423937E-32
   6.450000      4.7198696E-32
   6.460000      5.7646490E-32
   6.470000      6.8775941E-32
   6.480000      8.0594661E-32
   6.490000      9.3107569E-32
   6.500000      1.0631621E-31
   6.510000      1.2021976E-31
   6.520000      1.3481309E-31
   6.530000      1.5008779E-31
   6.540000      1.6603161E-31
   6.550000      1.8262807E-31
   6.560000      1.9985649E-31
   6.570000      2.1769114E-31
   6.580000      2.3610114E-31
   6.590000      2.5505061E-31
   6.600000      2.7449744E-31
   6.610000      2.9439325E-31
   6.620000      3.1468452E-31
   6.630000      3.3531087E-31
   6.640000      3.5620443E-31
   6.650000      3.7728982E-31
   6.660000      3.9848422E-31
   6.670000      4.1969714E-31
   6.680000      4.4083112E-31
   6.690000      4.6177941E-31
   6.700000      4.8242627E-31
   6.710000      5.0264825E-31
   6.720000      5.2231215E-31
   6.730000      5.4127650E-31
   6.740000      5.5939101E-31
   6.750000      5.7649567E-31
   6.760000      5.9242127E-31
   6.770000      6.0698955E-31
   6.780000      6.2001308E-31
   6.790000      6.3129548E-31
   6.800000      6.4063135E-31
   6.810000      6.4780610E-31
   6.820000      6.5259751E-31
   6.830000      6.5477476E-31
   6.840000      6.5409767E-31
   6.850000      6.5032100E-31
   6.860000      6.4319238E-31
   6.870000      6.3245132E-31
   6.880000      6.1783212E-31
   6.890000      5.9906432E-31
   6.900000      5.7587313E-31
   6.910000      5.4797964E-31
   6.920000      5.1510304E-31
   6.930000      4.7696111E-31
   6.940000      4.3327053E-31
   6.950000      3.8374899E-31
   6.960000      3.2811633E-31
   6.970000      2.6609553E-31
   6.980000      1.9741471E-31
   6.990000      1.2180854E-31
   7.000000      3.9019636E-32
   7.010000     -5.1199409E-32
   7.020000     -1.4908396E-31
   7.030000     -2.5485566E-31
   7.040000     -3.6872004E-31
   7.050000     -4.9086434E-31
   7.060000     -6.2145537E-31