  -2.600000      0.0000000E+00
  -2.590000      0.0000000E+00
  -2.580000      0.0000000E+00
  -2.570000      0.0000000E+00
  -2.560000      0.0000000E+00
  -2.550000      0.0000000E+00
  -2.540000      0.0000000E+00
  -2.530000      0.0000000E+00
  -2.520000      0.0000000E+00
  -2.510000      0.0000000E+00
  -2.500000      0.0000000E+00
  -2.490000      0.0000000E+00
  -2.480000      0.0000000E+00
  -2.470000      0.0000000E+00
  -2.460000      0.0000000E+00
  -2.450000      0.0000000E+00
  -2.440000      0.0000000E+00
  -2.430000      0.0000000E+00
  -2.420000      0.0000000E+00
  -2.410000      0.0000000E+00
  -2.400000      0.0000000E+00
  -2.390000      0.0000000E+00
  -2.380000      0.0000000E+00
  -2.370000      0.0000000E+00
  -2.360000      0.0000000E+00
  -2.350000      0.0000000E+00
  -2.340000      0.0000000E+00
  -2.330000      0.0000000E+00
  -2.320000      0.0000000E+00
  -2.310000      0.0000000E+00
  -2.300000      0.0000000E+00
  -2.290000      0.0000000E+00
  -2.280000      0.0000000E+00
  -2.270000      0.0000000E+00
  -2.260000      0.0000000E+00
  -2.250000      0.0000000E+00
  -2.240000      0.0000000E+00
  -2.230000      0.0000000E+00
  -2.220000      0.0000000E+00
  -2.210000      0.0000000E+00
  -2.200000      0.0000000E+00
  -2.190000      0.0000000E+00
  -2.180000      0.0000000E+00
  -2.170000      0.0000000E+00
  -2.160000      0.0000000E+00
  -2.150000      0.0000000E+00
  -2.140000      0.0000000E+00
  -2.130000      0.0000000E+00
  -2.120000      0.0000000E+00
  -2.110000      0.0000000E+00
  -2.100000      0.0000000E+00
  -2.090000      0.0000000E+00
  -2.080000      0.0000000E+00
  -2.070000      0.0000000E+00
  -2.060000      0.0000000E+00
  -2.050000      0.0000000E+00
  -2.040000      0.0000000E+00
  -2.030000      0.0000000E+00
  -2.020000      0.0000000E+00
  -2.010000      0.0000000E+00
  -2.000000      0.0000000E+00
  -1.990000      0.0000000E+00
  -1.980000      0.0000000E+00
  -1.970000      0.0000000E+00
  -1.960000      0.0000000E+00
  -1.950000      0.0000000E+00
  -1.940000      0.0000000E+00
  -1.930000      0.0000000E+00
  -1.920000      0.0000000E+00
  -1.910000      0.0000000E+00
  -1.900000      0.0000000E+00
  -1.890000      0.0000000E+00
  -1.880000      0.0000000E+00
  -1.870000      0.0000000E+00
  -1.860000      0.0000000E+00
  -1.850000      0.0000000E+00
  -1.840000      0.0000000E+00
  -1.830000      0.0000000E+00
  -1.820000      0.0000000E+00
  -1.810000      0.0000000E+00
  -1.800000      0.0000000E+00
  -1.790000      0.0000000E+00
  -1.780000      0.0000000E+00
  -1.770000      0.0000000E+00
  -1.760000      0.0000000E+00
  -1.750000      0.0000000E+00
  -1.740000      0.0000000E+00
  -1.730000      0.0000000E+00
  -1.720000      0.0000000E+00
  -1.710000      0.0000000E+00
  -1.700000      0.0000000E+00
  -1.690000      0.0000000E+00
  -1.680000      0.0000000E+00
  -1.670000      0.0000000E+00
  -1.660000      0.0000000E+00
  -1.650000      0.0000000E+00
  -1.640000      0.0000000E+00
  -1.630000      0.0000000E+00
  -1.620000      0.0000000E+00
  -1.610000      0.0000000E+00
  -1.600000      0.0000000E+00
  -1.590000      0.0000000E+00
  -1.580000      0.0000000E+00
  -1.570000      0.0000000E+00
  -1.560000      0.0000000E+00
  -1.550000      0.0000000E+00
  -1.540000      0.0000000E+00
  -1.530000      0.0000000E+00
  -1.520000      0.0000000E+00
  -1.510000      0.0000000E+00
  -1.500000      0.0000000E+00
  -1.490000      0.0000000E+00
  -1.480000      0.0000000E+00
  -1.470000      0.0000000E+00
  -1.460000      0.0000000E+00
  -1.450000      0.0000000E+00
  -1.440000      0.0000000E+00
  -1.430000      0.0000000E+00
  -1.420000      0.0000000E+00
  -1.410000      0.0000000E+00
  -1.400000      0.0000000E+00
  -1.390000      0.0000000E+00
  -1.380000      0.0000000E+00
  -1.370000      0.0000000E+00
  -1.360000      0.0000000E+00
  -1.350000      0.0000000E+00
  -1.340000      0.0000000E+00
  -1.330000      0.0000000E+00
  -1.320000      0.0000000E+00
  -1.310000      0.0000000E+00
  -1.300000      0.0000000E+00
  -1.290000      0.0000000E+00
  -1.280000      0.0000000E+00
  -1.270000      0.0000000E+00
  -1.260000      0.0000000E+00
  -1.250000      0.0000000E+00
  -1.240000      0.0000000E+00
  -1.230000      0.0000000E+00
  -1.220000      0.0000000E+00
  -1.210000      0.0000000E+00
  -1.200000      0.0000000E+00
  -1.190000      0.0000000E+00
  -1.180000      0.0000000E+00
  -1.170000      0.0000000E+00
  -1.160000      0.0000000E+00
  -1.150000      0.0000000E+00
  -1.140000      0.0000000E+00
  -1.130000      0.0000000E+00
  -1.120000      0.0000000E+00
  -1.110000      0.0000000E+00
  -1.100000      0.0000000E+00
  -1.090000      0.0000000E+00
  -1.080000      0.0000000E+00
  -1.070000      0.0000000E+00
  -1.060000      0.0000000E+00
  -1.050000      0.0000000E+00
  -1.040000      0.0000000E+00
  -1.030000      0.0000000E+00
  -1.020000      0.0000000E+00
  -1.010000      0.0000000E+00
  -1.000000      0.0000000E+00
 -0.9900000      0.0000000E+00
 -0.9800000      0.0000000E+00
 -0.9700000      0.0000000E+00
 -0.9600000      0.0000000E+00
 -0.9500000      0.0000000E+00
 -0.9400000      0.0000000E+00
 -0.9300000      0.0000000E+00
 -0.9200000      0.0000000E+00
 -0.9100000      0.0000000E+00
 -0.9000000      0.0000000E+00
 -0.8900000      0.0000000E+00
 -0.8800000      0.0000000E+00
 -0.8700000      0.0000000E+00
 -0.8600000      0.0000000E+00
 -0.8500000      0.0000000E+00
 -0.8400000      0.0000000E+00
 -0.8300000      0.0000000E+00
 -0.8200000      0.0000000E+00
 -0.8100000      0.0000000E+00
 -0.8000000      0.0000000E+00
 -0.7900000      0.0000000E+00
 -0.7800000      0.0000000E+00
 -0.7700000      0.0000000E+00
 -0.7600000      0.0000000E+00
 -0.7500000      0.0000000E+00
 -0.7400000      0.0000000E+00
 -0.7300000      0.0000000E+00
 -0.7200000      0.0000000E+00
 -0.7100000      0.0000000E+00
 -0.7000000      0.0000000E+00
 -0.6900000      0.0000000E+00
 -0.6800000      0.0000000E+00
 -0.6700000      0.0000000E+00
 -0.6600000      0.0000000E+00
 -0.6500000      0.0000000E+00
 -0.6400000      0.0000000E+00
 -0.6300000      0.0000000E+00
 -0.6200000      0.0000000E+00
 -0.6100000      0.0000000E+00
 -0.6000000      0.0000000E+00
 -0.5900000      0.0000000E+00
 -0.5800000      0.0000000E+00
 -0.5700000      0.0000000E+00
 -0.5600000      0.0000000E+00
 -0.5500000      0.0000000E+00
 -0.5400000      0.0000000E+00
 -0.5300000      0.0000000E+00
 -0.5200000      0.0000000E+00
 -0.5100000      0.0000000E+00
 -0.5000000      0.0000000E+00
 -0.4900000      0.0000000E+00
 -0.4800000      0.0000000E+00
 -0.4700000      0.0000000E+00
 -0.4600000      0.0000000E+00
 -0.4500000      0.0000000E+00
 -0.4400000      0.0000000E+00
 -0.4300000      0.0000000E+00
 -0.4200000      0.0000000E+00
 -0.4100000      0.0000000E+00
 -0.4000000      0.0000000E+00
 -0.3900000      0.0000000E+00
 -0.3800000      0.0000000E+00
 -0.3700000      0.0000000E+00
 -0.3600000      0.0000000E+00
 -0.3500000      0.0000000E+00
 -0.3400000      0.0000000E+00
 -0.3300000      0.0000000E+00
 -0.3200000      0.0000000E+00
 -0.3100000      0.0000000E+00
 -0.3000000      0.0000000E+00
 -0.2900000      0.0000000E+00
 -0.2800000      0.0000000E+00
 -0.2700000      0.0000000E+00
 -0.2600000      0.0000000E+00
 -0.2500000      0.0000000E+00
 -0.2400000      0.0000000E+00
 -0.2300000      1.5600332E-38
 -0.2200000      2.0727818E-38
 -0.2100000      2.6825555E-38
 -0.2000000      3.2132895E-38
 -0.1900000      3.4590571E-38
 -0.1800000      3.3756543E-38
 -0.1700000      2.9493628E-38
 -0.1600000      2.1336640E-38
 -0.1500000      0.0000000E+00
 -0.1400000      0.0000000E+00
 -0.1300000     -3.3612445E-38
 -0.1200000     -6.0262627E-38
 -0.1100000     -9.0372597E-38
 -0.1000000     -1.2213065E-37
 -9.0000004E-02 -1.5277452E-37
 -7.9999998E-02 -1.8103130E-37
 -7.0000000E-02 -2.0434783E-37
 -5.9999999E-02 -2.1976808E-37
 -5.0000001E-02 -2.2585485E-37
 -3.9999999E-02 -2.2231618E-37
 -2.9999999E-02 -2.0828665E-37
 -2.0000000E-02 -1.8382490E-37
 -9.9999998E-03 -1.4653321E-37
 -3.4694470E-17 -1.0291855E-37
  9.9999998E-03 -5.1833475E-38
  2.0000000E-02  2.9091612E-38
  2.9999999E-02  1.6236061E-37
  3.9999999E-02  3.3525438E-37
  5.0000001E-02  5.2964378E-37
  5.9999999E-02  7.3081827E-37
  7.0000000E-02  9.8444136E-37
  7.9999998E-02  1.3040901E-36
  9.0000004E-02  1.6182663E-36
  0.1000000      1.9424755E-36
  0.1100000      2.2431891E-36
  0.1200000      2.4566370E-36
  0.1300000      2.5494897E-36
  0.1400000      2.4888716E-36
  0.1500000      2.3635282E-36
  0.1600000      2.1959519E-36
  0.1700000      1.7733863E-36
  0.1800000      8.5946258E-37
  0.1900000     -3.9177987E-37
  0.2000000     -1.8759287E-36
  0.2100000     -3.6057410E-36
  0.2200000     -5.0007617E-36
  0.2300000     -6.0967577E-36
  0.2400000     -7.1542183E-36
  0.2500000     -8.7631023E-36
  0.2600000     -1.0889400E-35
  0.2700000     -1.2411085E-35
  0.2800000     -1.3234753E-35
  0.2900000     -1.3297725E-35
  0.3000000     -1.2657582E-35
  0.3100000     -1.1180165E-35
  0.3200000     -8.6428954E-36
  0.3300000     -3.1147368E-36
  0.3400000      6.5141809E-36
  0.3500000      1.9035139E-35
  0.3600000      3.4916125E-35
  0.3700000      5.4999395E-35
  0.3800000      7.8771598E-35
  0.3900000      1.0776732E-34
  0.4000000      1.4343628E-34
  0.4100000      1.8143658E-34
  0.4200000      2.2130598E-34
  0.4300000      2.6353954E-34
  0.4400000      3.0790380E-34
  0.4500000      3.5674160E-34
  0.4600000      4.0544123E-34
  0.4700000      4.5281737E-34
  0.4800000      5.0297383E-34
  0.4900000      5.5626312E-34
  0.5000000      6.1149372E-34
  0.5100000      6.6640506E-34
  0.5200000      7.2400075E-34
  0.5300000      7.8832077E-34
  0.5400000      8.5926892E-34
  0.5500000      9.3609822E-34
  0.5600000      1.0216682E-33
  0.5700000      1.1149553E-33
  0.5800000      1.2087468E-33
  0.5900000      1.3004834E-33
  0.6000000      1.3891328E-33
  0.6100000      1.4815660E-33
  0.6200000      1.5767249E-33
  0.6300000      1.6653093E-33
  0.6400000      1.7457498E-33
  0.6500000      1.8169958E-33
  0.6600000      1.8799745E-33
  0.6700000      1.9324918E-33
  0.6800000      1.9700091E-33
  0.6900000      1.9893958E-33
  0.7000000      1.9871644E-33
  0.7100000      1.9604048E-33
  0.7200000      1.9068324E-33
  0.7300000      1.8235247E-33
  0.7400000      1.7077848E-33
  0.7500000      1.5577067E-33
  0.7600000      1.3714169E-33
  0.7700000      1.1473348E-33
  0.7800000      8.8399609E-34
  0.7900000      5.8039506E-34
  0.8000000      2.3587100E-34
  0.8100000     -1.5333037E-34
  0.8200000     -5.8393550E-34
  0.8300000     -1.0524278E-33
  0.8400000     -1.5617431E-33
  0.8500000     -2.1112593E-33
  0.8600000     -2.7001915E-33
  0.8700000     -3.3269047E-33
  0.8800000     -3.9902020E-33
  0.8900000     -4.6889595E-33
  0.9000000     -5.4210923E-33
  0.9100000     -6.1846997E-33
  0.9200000     -6.9781488E-33
  0.9300000     -7.7996144E-33
  0.9400000     -8.6464890E-33
  0.9500000     -9.5163049E-33
  0.9600000     -1.0406785E-32
  0.9700000     -1.1315401E-32
  0.9800000     -1.2239528E-32
  0.9900000     -1.3176157E-32
   1.000000     -1.4119731E-32
   1.010000     -1.5071031E-32
   1.020000     -1.6030165E-32
   1.030000     -1.6991318E-32
   1.040000     -1.7950259E-32
   1.050000     -1.8904202E-32
   1.060000     -1.9851143E-32
   1.070000     -2.0787336E-32
   1.080000     -2.1709779E-32
   1.090000     -2.2615724E-32
   1.100000     -2.3502680E-32
   1.110000     -2.4368574E-32
   1.120000     -2.5211991E-32
   1.130000     -2.6032242E-32
   1.140000     -2.6829554E-32
   1.150000     -2.7605268E-32
   1.160000     -2.8361999E-32
   1.170000     -2.9103774E-32
   1.180000     -2.9836227E-32
   1.190000     -3.0566641E-32
   1.200000     -3.1304088E-32
   1.210000     -3.2059522E-32
   1.220000     -3.2845784E-32
   1.230000     -3.3677569E-32
   1.240000     -3.4571389E-32
   1.250000     -3.5545500E-32
   1.260000     -3.6619638E-32
   1.270000     -3.7815271E-32
   1.280000     -3.9155167E-32
   1.290000     -4.0662942E-32
   1.300000     -4.2363279E-32
   1.310000     -4.4281575E-32
   1.320000     -4.6443758E-32
   1.330000     -4.8876126E-32
   1.340000     -5.1605195E-32
   1.350000     -5.4657584E-32
   1.360000     -5.8059923E-32
   1.370000     -6.1838873E-32
   1.380000     -6.6021111E-32
   1.390000     -7.0633404E-32
   1.400000     -7.5702712E-32
   1.410000     -8.1256329E-32
   1.420000     -8.7322045E-32
   1.430000     -9.3928329E-32
   1.440000     -1.0110452E-31
   1.450000     -1.0888095E-31
   1.460000     -1.1728911E-31
   1.470000     -1.2636160E-31
   1.480000     -1.3613220E-31
   1.490000     -1.4663563E-31
   1.500000     -1.5790734E-31
   1.510000     -1.6998314E-31
   1.520000     -1.8289870E-31
   1.530000     -1.9668891E-31
   1.540000     -2.1138706E-31
   1.550000     -2.2702398E-31
   1.560000     -2.4362725E-31
   1.570000     -2.6122000E-31
   1.580000     -2.7981987E-31
   1.590000     -2.9943810E-31
   1.600000     -3.2007837E-31
   1.610000     -3.4173607E-31
   1.620000     -3.6439728E-31
   1.630000     -3.8803807E-31
   1.640000     -4.1262414E-31
   1.650000     -4.3811027E-31
   1.660000     -4.6444017E-31
   1.670000     -4.9154632E-31
   1.680000     -5.1935033E-31
   1.690000     -5.4776297E-31
   1.700000     -5.7668450E-31
   1.710000     -6.0600509E-31
   1.720000     -6.3560531E-31
   1.730000     -6.6535623E-31
   1.740000     -6.9511960E-31
   1.750000     -7.2474817E-31
   1.760000     -7.5408536E-31
   1.770000     -7.8296477E-31
   1.780000     -8.1120959E-31
   1.790000     -8.3863171E-31
   1.800000     -8.6503021E-31
   1.810000     -8.9018993E-31
   1.820000     -9.1387962E-31
   1.830000     -9.3584999E-31
   1.840000     -9.5583179E-31
   1.850000     -9.7353351E-31
   1.860000     -9.8863918E-31
   1.870000     -1.0008071E-30
   1.880000     -1.0096677E-30
   1.890000     -1.0148233E-30
   1.900000     -1.0158460E-30
   1.910000     -1.0122795E-30
   1.920000     -1.0036383E-30
   1.930000     -9.8941002E-31
   1.940000     -9.6905667E-31
   1.950000     -9.4201813E-31
   1.960000     -9.0771476E-31
   1.970000     -8.6555270E-31
   1.980000     -8.1492651E-31
   1.990000     -7.5522554E-31
   2.000000     -6.8583757E-31
   2.010000     -6.0615434E-31
   2.020000     -5.1557648E-31
   2.030000     -4.1351710E-31
   2.040000     -2.9940605E-31
   2.050000     -1.7269319E-31
   2.060000     -3.2850947E-32
   2.070000      1.2062423E-31
   2.080000      2.8821031E-31
   2.090000      4.7036052E-31
   2.100000      6.6750287E-31
   2.110000      8.8004062E-31
   2.120000      1.1083552E-30
   2.130000      1.3528061E-30
   2.140000      1.6137322E-30
   2.150000      1.8914530E-30
   2.160000      2.1862685E-30
   2.170000      2.4984604E-30
   2.180000      2.8282896E-30
   2.190000      3.1759920E-30
   2.200000      3.5417773E-30
   2.210000      3.9258239E-30
   2.220000      4.3282718E-30
   2.230000      4.7492157E-30
   2.240000      5.1886998E-30
   2.250000      5.6467070E-30
   2.260000      6.1231523E-30
   2.270000      6.6178767E-30
   2.280000      7.1306375E-30
   2.290000      7.6611078E-30
   2.300000      8.2088716E-30
   2.310000      8.7734234E-30
   2.320000      9.3541680E-30
   2.330000      9.9504276E-30
   2.340000      1.0561452E-29
   2.350000      1.1186431E-29
   2.360000      1.1824503E-29
   2.370000      1.2474781E-29
   2.380000      1.3136369E-29
   2.390000      1.3808387E-29
   2.400000      1.4489991E-29
   2.410000      1.5180406E-29
   2.420000      1.5878949E-29
   2.430000      1.6585057E-29
   2.440000      1.7298307E-29
   2.450000      1.8018445E-29
   2.460000      1.8745403E-29
   2.470000      1.9479314E-29
   2.480000      2.0220537E-29
   2.490000      2.0969667E-29
   2.500000      2.1727532E-29
   2.510000      2.2495217E-29
   2.520000      2.3274060E-29
   2.530000      2.4065653E-29
   2.540000      2.4871854E-29
   2.550000      2.5694770E-29
   2.560000      2.6536784E-29
   2.570000      2.7400527E-29
   2.580000      2.8288926E-29
   2.590000      2.9205169E-29
   2.600000      3.0152744E-29
   2.610000      3.1135450E-29
   2.620000      3.2157418E-29
   2.630000      3.3223113E-29
   2.640000      3.4337381E-29
   2.650000      3.5505457E-29
   2.660000      3.6732994E-29
   2.670000      3.8026060E-29
   2.680000      3.9391205E-29
   2.690000      4.0835435E-29
   2.700000      4.2366228E-29
   2.710000      4.3991523E-29
   2.720000      4.5719663E-29
   2.730000      4.7559426E-29
   2.740000      4.9519962E-29
   2.750000      5.1610661E-29
   2.760000      5.3841123E-29
   2.770000      5.6221079E-29
   2.780000      5.8760267E-29
   2.790000      6.1468269E-29
   2.800000      6.4354359E-29
   2.810000      6.7427403E-29
   2.820000      7.0695682E-29
   2.830000      7.4166677E-29
   2.840000      7.7846889E-29
   2.850000      8.1741643E-29
   2.860000      8.5855002E-29
   2.870000      9.0189488E-29
   2.880000      9.4745871E-29
   2.890000      9.9523044E-29
   2.900000      1.0451789E-28
   2.910000      1.0972503E-28
   2.920000      1.1513663E-28
   2.930000      1.2074229E-28
   2.940000      1.2652889E-28
   2.950000      1.3248035E-28
   2.960000      1.3857741E-28
   2.970000      1.4479761E-28
   2.980000      1.5111495E-28
   2.990000      1.5749975E-28
   3.000000      1.6391838E-28
   3.010000      1.7033308E-28
   3.020000      1.7670176E-28
   3.030000      1.8297762E-28
   3.040000      1.8910901E-28
   3.050000      1.9503914E-28
   3.060000      2.0070585E-28
   3.070000      2.0604126E-28
   3.080000      2.1097154E-28
   3.090000      2.1541688E-28
   3.100000      2.1929115E-28
   3.110000      2.2250180E-28
   3.120000      2.2494980E-28
   3.130000      2.2652959E-28
   3.140000      2.2712896E-28
   3.150000      2.2662933E-28
   3.160000      2.2490596E-28
   3.170000      2.2182799E-28
   3.180000      2.1725898E-28
   3.190000      2.1105725E-28
   3.200000      2.0307636E-28
   3.210000      1.9316555E-28
   3.220000      1.8117095E-28
   3.230000      1.6693566E-28
   3.240000      1.5030111E-28
   3.250000      1.3110768E-28
   3.260000      1.0919567E-28
   3.270000      8.4406359E-29
   3.280000      5.6583292E-29
   3.290000      2.5572820E-29
   3.300000     -8.7740057E-30
   3.310000     -4.6600427E-29
   3.320000     -8.8042985E-29
   3.330000     -1.3322972E-28
   3.340000     -1.8227864E-28
   3.350000     -2.3529712E-28
   3.360000     -2.9237906E-28
   3.370000     -3.5360394E-28
   3.380000     -4.1903536E-28
   3.390000     -4.8871825E-28
   3.400000     -5.6267825E-28
   3.410000     -6.4091838E-28
   3.420000     -7.2341728E-28
   3.430000     -8.1012760E-28
   3.440000     -9.0097285E-28
   3.450000     -9.9584531E-28
   3.460000     -1.0946046E-27
   3.470000     -1.1970741E-27
   3.480000     -1.3030387E-27
   3.490000     -1.4122428E-27
   3.500000     -1.5243872E-27
   3.510000     -1.6391278E-27
   3.520000     -1.7560731E-27
   3.530000     -1.8747819E-27
   3.540000     -1.9947615E-27
   3.550000     -2.1154667E-27
   3.560000     -2.2362980E-27
   3.570000     -2.3566014E-27
   3.580000     -2.4756670E-27
   3.590000     -2.5927281E-27
   3.600000     -2.7069627E-27
   3.610000     -2.8174934E-27
   3.620000     -2.9233870E-27
   3.630000     -3.0236576E-27
   3.640000     -3.1172671E-27
   3.650000     -3.2031277E-27
   3.660000     -3.2801044E-27
   3.670000     -3.3470190E-27
   3.680000     -3.4026521E-27
   3.690000     -3.4457487E-27
   3.700000     -3.4750197E-27
   3.710000     -3.4891526E-27
   3.720000     -3.4868122E-27
   3.730000     -3.4666492E-27
   3.740000     -3.4273056E-27
   3.750000     -3.3674250E-27
   3.760000     -3.2856596E-27
   3.770000     -3.1806768E-27
   3.780000     -3.0511730E-27
   3.790000     -2.8958818E-27
   3.800000     -2.7135866E-27
   3.810000     -2.5031325E-27
   3.820000     -2.2634415E-27
   3.830000     -1.9935228E-27
   3.840000     -1.6924907E-27
   3.850000     -1.3595789E-27
   3.860000     -9.9415733E-28
   3.870000     -5.9575316E-28
   3.880000     -1.6406494E-28
   3.890000      3.0101811E-28
   3.900000      7.9939540E-28
   3.910000      1.3307363E-27
   3.920000      1.8944585E-27
   3.930000      2.4897061E-27
   3.940000      3.1153340E-27
   3.950000      3.7698823E-27
   3.960000      4.4515571E-27
   3.970000      5.1582120E-27
   3.980000      5.8873229E-27
   3.990000      6.6359727E-27
   4.000000      7.4008357E-27
   4.010000      8.1781518E-27
   4.020000      8.9637117E-27
   4.030000      9.7528445E-27
   4.040000      1.0540399E-26
   4.050000      1.1320731E-26
   4.060000      1.2087693E-26
   4.070000      1.2834623E-26
   4.080000      1.3554336E-26
   4.090000      1.4239117E-26
   4.100000      1.4880715E-26
   4.110000      1.5470351E-26
   4.120000      1.5998709E-26
   4.130000      1.6455948E-26
   4.140000      1.6831696E-26
   4.150000      1.7115074E-26
   4.160000      1.7294712E-26
   4.170000      1.7358759E-26
   4.180000      1.7294914E-26
   4.190000      1.7090451E-26
   4.200000      1.6732262E-26
   4.210000      1.6206879E-26
   4.220000      1.5500525E-26
   4.230000      1.4599168E-26
   4.240000      1.3488580E-26
   4.250000      1.2154418E-26
   4.260000      1.0582255E-26
   4.270000      8.7576780E-27
   4.280000      6.6663746E-27
   4.290000      4.2942217E-27
   4.300000      1.6273942E-27
   4.310000     -1.3475415E-27
   4.320000     -4.6435188E-27
   4.330000     -8.2728213E-27
   4.340000     -1.2246965E-26
   4.350000     -1.6576581E-26
   4.360000     -2.1271261E-26
   4.370000     -2.6339391E-26
   4.380000     -3.1788016E-26
   4.390000     -3.7622666E-26
   4.400000     -4.3847166E-26
   4.410000     -5.0463472E-26
   4.420000     -5.7471524E-26
   4.430000     -6.4869000E-26
   4.440000     -7.2651094E-26
   4.450000     -8.0810430E-26
   4.460000     -8.9336772E-26
   4.470000     -9.8216844E-26
   4.480000     -1.0743408E-25
   4.490000     -1.1696845E-25
   4.500000     -1.2679626E-25
   4.510000     -1.3688990E-25
   4.520000     -1.4721758E-25
   4.530000     -1.5774324E-25
   4.540000     -1.6842624E-25
   4.550000     -1.7922117E-25
   4.560000     -1.9007770E-25
   4.570000     -2.0094028E-25
   4.580000     -2.1174802E-25
   4.590000     -2.2243457E-25
   4.600000     -2.3292775E-25
   4.610000     -2.4314956E-25
   4.620000     -2.5301609E-25
   4.630000     -2.6243726E-25
   4.640000     -2.7131683E-25
   4.650000     -2.7955219E-25
   4.660000     -2.8703446E-25
   4.670000     -2.9364827E-25
   4.680000     -2.9927201E-25
   4.690000     -3.0377756E-25
   4.700000     -3.0703068E-25
   4.710000     -3.0889084E-25
   4.720000     -3.0921161E-25
   4.730000     -3.0784064E-25
   4.740000     -3.0461970E-25
   4.750000     -2.9938541E-25
   4.760000     -2.9196933E-25
   4.770000     -2.8219850E-25
   4.780000     -2.6989540E-25
   4.790000     -2.5487852E-25
   4.800000     -2.3696344E-25
   4.810000     -2.1596320E-25
   4.820000     -1.9168815E-25
   4.830000     -1.6394801E-25
   4.840000     -1.3255201E-25
   4.850000     -9.7309358E-26
   4.860000     -5.8030802E-26
   4.870000     -1.4529363E-26
   4.880000      3.3378655E-26
   4.890000      8.5872126E-26
   4.900000      1.4312432E-25
   4.910000      2.0530177E-25
   4.920000      2.7256224E-25
   4.930000      3.4505343E-25
   4.940000      4.2291090E-25
   4.950000      5.0625790E-25
   4.960000      5.9520250E-25
   4.970000      6.8983633E-25
   4.980000      7.9023224E-25
   4.990000      8.9644240E-25
   5.000000      1.0084967E-24
   5.010000      1.1264006E-24
   5.020000      1.2501321E-24
   5.030000      1.3796408E-24
   5.040000      1.5148449E-24
   5.050000      1.6556289E-24
   5.060000      1.8018419E-24
   5.070000      1.9532941E-24
   5.080000      2.1097548E-24
   5.090000      2.2709503E-24
   5.100000      2.4365612E-24
   5.110000      2.6062203E-24
   5.120000      2.7795084E-24
   5.130000      2.9559539E-24
   5.140000      3.1350299E-24
   5.150000      3.3161504E-24
   5.160000      3.4986699E-24
   5.170000      3.6818805E-24
   5.180000      3.8650090E-24
   5.190000      4.0472150E-24
   5.200000      4.2275900E-24
   5.210000      4.4051539E-24
   5.220000      4.5788536E-24
   5.230000      4.7475641E-24
   5.240000      4.9100833E-24
   5.250000      5.0651327E-24
   5.260000      5.2113579E-24
   5.270000      5.3473268E-24
   5.280000      5.4715258E-24
   5.290000      5.5823632E-24
   5.300000      5.6781715E-24
   5.310000      5.7572047E-24
   5.320000      5.8176437E-24
   5.330000      5.8575900E-24
   5.340000      5.8750704E-24
   5.350000      5.8680468E-24
   5.360000      5.8344097E-24
   5.370000      5.7719844E-24
   5.380000      5.6785371E-24
   5.390000      5.5517770E-24
   5.400000      5.3893608E-24
   5.410000      5.1888975E-24
   5.420000      4.9479596E-24
   5.430000      4.6640833E-24
   5.440000      4.3347852E-24
   5.450000      3.9575629E-24
   5.460000      3.5299076E-24
   5.470000      3.0493077E-24
   5.480000      2.5132631E-24
   5.490000      1.9193079E-24
   5.500000      1.2650096E-24
   5.510000      5.4797957E-25
   5.520000     -2.3410350E-25
   5.530000     -1.0834775E-24
   5.540000     -2.0022915E-24
   5.550000     -2.9925819E-24
   5.560000     -4.0562553E-24
   5.570000     -5.1950750E-24
   5.580000     -6.4106359E-24
   5.590000     -7.7043477E-24
   5.600000     -9.0774122E-24
   5.610000     -1.0530802E-23
   5.620000     -1.2065247E-23
   5.630000     -1.3681204E-23
   5.640000     -1.5378823E-23
   5.650000     -1.7157938E-23
   5.660000     -1.9018035E-23
   5.670000     -2.0958236E-23
   5.680000     -2.2977245E-23
   5.690000     -2.5073351E-23
   5.700000     -2.7244387E-23
   5.710000     -2.9487703E-23
   5.720000     -3.1800154E-23
   5.730000     -3.4178042E-23
   5.740000     -3.6617115E-23
   5.750000     -3.9112525E-23
   5.760000     -4.1658807E-23
   5.770000     -4.4249843E-23
   5.780000     -4.6878845E-23
   5.790000     -4.9538319E-23
   5.800000     -5.2220055E-23
   5.810000     -5.4915088E-23
   5.820000     -5.7613674E-23
   5.830000     -6.0305286E-23
   5.840000     -6.2978553E-23
   5.850000     -6.5621287E-23
   5.860000     -6.8220451E-23
   5.870000     -7.0762130E-23
   5.880000     -7.3231517E-23
   5.890000     -7.5612917E-23
   5.900000     -7.7889728E-23
   5.910000     -8.0044441E-23
   5.920000     -8.2058649E-23
   5.930000     -8.3912996E-23
   5.940000     -8.5587268E-23
   5.950000     -8.7060343E-23
   5.960000     -8.8310227E-23
   5.970000     -8.9314037E-23
   5.980000     -9.0048043E-23
   5.990000     -9.0487710E-23
   6.000000     -9.0607718E-23
   6.010000     -9.0381996E-23
   6.020000     -8.9783825E-23
   6.030000     -8.8785740E-23
   6.040000     -8.7359738E-23
   6.050000     -8.5477263E-23
   6.060000     -8.3109298E-23
   6.070000     -8.0226460E-23
   6.080000     -7.6799023E-23
   6.090000     -7.2797037E-23
   6.100000     -6.8190493E-23
   6.110000     -6.2949308E-23
   6.120000     -5.7043523E-23
   6.130000     -5.0443417E-23
   6.140000     -4.3119610E-23
   6.150000     -3.5043249E-23
   6.160000     -2.6186116E-23
   6.170000     -1.6520770E-23
   6.180000     -6.0207442E-24
   6.190000      5.3392583E-24
   6.200000      1.7583120E-23
   6.210000      3.0733317E-23
   6.220000      4.4810650E-23
   6.230000      5.9833837E-23
   6.240000      7.5819611E-23
   6.250000      9.2782260E-23
   6.260000      1.1073348E-22
   6.270000      1.2968217E-22
   6.280000      1.4963415E-22
   6.290000      1.7059189E-22
   6.300000      1.9255413E-22
   6.310000      2.1551584E-22
   6.320000      2.3946785E-22
   6.330000      2.6439659E-22
   6.340000      2.9028380E-22
   6.350000      3.1710628E-22
   6.360000      3.4483569E-22
   6.370000      3.7343794E-22
   6.380000      4.0287323E-22
   6.390000      4.3309564E-22
   6.400000      4.6405282E-22
   6.410000      4.9568576E-22
   6.420000      5.2792864E-22
   6.430000      5.6070840E-22
   6.440000      5.9394441E-22
   6.450000      6.2754842E-22
   6.460000      6.6142435E-22
   6.470000      6.9546765E-22
   6.480000      7.2956542E-22
   6.490000      7.6359651E-22
   6.500000      7.9743053E-22
   6.510000      8.3092837E-22
   6.520000      8.6394188E-22
   6.530000      8.9631350E-22
   6.540000      9.2787703E-22
   6.550000      9.5845626E-22
   6.560000      9.8786529E-22
   6.570000      1.0159093E-21
   6.580000      1.0423842E-21
   6.590000      1.0670766E-21
   6.600000      1.0897634E-21
   6.610000      1.1102131E-21
   6.620000      1.1281848E-21
   6.630000      1.1434294E-21
   6.640000      1.1556892E-21
   6.650000      1.1646982E-21
   6.660000      1.1701835E-21
   6.670000      1.1718649E-21
   6.680000      1.1694547E-21
   6.690000      1.1626595E-21
   6.700000      1.1511810E-21
   6.710000      1.1347149E-21
   6.720000      1.1129538E-21
   6.730000      1.0855867E-21
   6.740000      1.0523004E-21
   6.750000      1.0127801E-21
   6.760000      9.6671080E-22
   6.770000      9.1377841E-22
   6.780000      8.5366998E-22
   6.790000      7.8607533E-22
   6.800000      7.1068971E-22
   6.810000      6.2721460E-22
   6.820000      5.3535827E-22
   6.830000      4.3483720E-22
   6.840000      3.2537937E-22
   6.850000      2.0672544E-22
   6.860000      7.8628808E-23
   6.870000     -5.9140927E-23
   6.880000     -2.0679557E-22
   6.890000     -3.6452765E-22
   6.900000     -5.3250772E-22
   6.910000     -7.1088197E-22
   6.920000     -8.9977046E-22
   6.930000     -1.0992651E-21
   6.940000     -1.3094265E-21
   6.950000     -1.5302833E-21
   6.960000     -1.7618283E-21
   6.970000     -2.0040161E-21
   6.980000     -2.2567608E-21
   6.990000     -2.5199316E-21
   7.000000     -2.7933542E-21
   7.010000     -3.0768067E-21
   7.020000     -3.3700158E-21
   7.030000     -3.6726553E-21
   7.040000     -3.9843440E-21
   7.050000     -4.3046418E-21
   7.060000     -4.6330479E-21