  -2.600000      0.0000000E+00
  -2.590000      0.0000000E+00
  -2.580000      0.0000000E+00
  -2.570000      0.0000000E+00
  -2.560000      0.0000000E+00
  -2.550000      0.0000000E+00
  -2.540000      0.0000000E+00
  -2.530000      0.0000000E+00
  -2.520000      0.0000000E+00
  -2.510000      0.0000000E+00
  -2.500000      0.0000000E+00
  -2.490000      0.0000000E+00
  -2.480000      0.0000000E+00
  -2.470000      0.0000000E+00
  -2.460000      0.0000000E+00
  -2.450000      0.0000000E+00
  -2.440000      0.0000000E+00
  -2.430000      0.0000000E+00
  -2.420000      0.0000000E+00
  -2.410000      0.0000000E+00
  -2.400000      0.0000000E+00
  -2.390000      0.0000000E+00
  -2.380000      0.0000000E+00
  -2.370000      0.0000000E+00
  -2.360000      0.0000000E+00
  -2.350000      0.0000000E+00
  -2.340000      0.0000000E+00
  -2.330000      0.0000000E+00
  -2.320000      0.0000000E+00
  -2.310000      0.0000000E+00
  -2.300000      0.0000000E+00
  -2.290000      0.0000000E+00
  -2.280000      0.0000000E+00
  -2.270000      0.0000000E+00
  -2.260000      0.0000000E+00
  -2.250000      0.0000000E+00
  -2.240000      0.0000000E+00
  -2.230000      0.0000000E+00
  -2.220000      0.0000000E+00
  -2.210000      0.0000000E+00
  -2.200000      0.0000000E+00
  -2.190000      0.0000000E+00
  -2.180000      0.0000000E+00
  -2.170000      0.0000000E+00
  -2.160000      0.0000000E+00
  -2.150000      0.0000000E+00
  -2.140000      0.0000000E+00
  -2.130000      0.0000000E+00
  -2.120000      0.0000000E+00
  -2.110000      0.0000000E+00
  -2.100000      0.0000000E+00
  -2.090000      0.0000000E+00
  -2.080000      0.0000000E+00
  -2.070000      0.0000000E+00
  -2.060000      0.0000000E+00
  -2.050000      0.0000000E+00
  -2.040000      0.0000000E+00
  -2.030000      0.0000000E+00
  -2.020000      0.0000000E+00
  -2.010000      0.0000000E+00
  -2.000000      0.0000000E+00
  -1.990000      0.0000000E+00
  -1.980000      0.0000000E+00
  -1.970000      0.0000000E+00
  -1.960000      0.0000000E+00
  -1.950000      0.0000000E+00
  -1.940000      0.0000000E+00
  -1.930000      0.0000000E+00
  -1.920000      0.0000000E+00
  -1.910000      0.0000000E+00
  -1.900000      0.0000000E+00
  -1.890000      0.0000000E+00
  -1.880000      0.0000000E+00
  -1.870000      0.0000000E+00
  -1.860000      0.0000000E+00
  -1.850000      0.0000000E+00
  -1.840000      0.0000000E+00
  -1.830000      0.0000000E+00
  -1.820000      0.0000000E+00
  -1.810000      0.0000000E+00
  -1.800000      0.0000000E+00
  -1.790000      0.0000000E+00
  -1.780000      0.0000000E+00
  -1.770000      0.0000000E+00
  -1.760000      0.0000000E+00
  -1.750000      0.0000000E+00
  -1.740000      0.0000000E+00
  -1.730000      0.0000000E+00
  -1.720000      0.0000000E+00
  -1.710000      0.0000000E+00
  -1.700000      0.0000000E+00
  -1.690000      0.0000000E+00
  -1.680000      0.0000000E+00
  -1.670000      0.0000000E+00
  -1.660000      0.0000000E+00
  -1.650000      0.0000000E+00
  -1.640000      0.0000000E+00
  -1.630000      0.0000000E+00
  -1.620000      0.0000000E+00
  -1.610000      0.0000000E+00
  -1.600000      0.0000000E+00
  -1.590000      0.0000000E+00
  -1.580000      0.0000000E+00
  -1.570000      0.0000000E+00
  -1.560000      0.0000000E+00
  -1.550000      0.0000000E+00
  -1.540000      0.0000000E+00
  -1.530000      0.0000000E+00
  -1.520000      0.0000000E+00
  -1.510000      0.0000000E+00
  -1.500000      0.0000000E+00
  -1.490000      0.0000000E+00
  -1.480000      0.0000000E+00
  -1.470000      0.0000000E+00
  -1.460000      0.0000000E+00
  -1.450000      0.0000000E+00
  -1.440000      0.0000000E+00
  -1.430000      0.0000000E+00
  -1.420000      0.0000000E+00
  -1.410000      0.0000000E+00
  -1.400000      0.0000000E+00
  -1.390000      0.0000000E+00
  -1.380000      0.0000000E+00
  -1.370000      0.0000000E+00
  -1.360000      0.0000000E+00
  -1.350000      0.0000000E+00
  -1.340000      0.0000000E+00
  -1.330000      0.0000000E+00
  -1.320000      0.0000000E+00
  -1.310000      0.0000000E+00
  -1.300000      0.0000000E+00
  -1.290000      0.0000000E+00
  -1.280000      0.0000000E+00
  -1.270000      0.0000000E+00
  -1.260000      0.0000000E+00
  -1.250000      0.0000000E+00
  -1.240000      0.0000000E+00
  -1.230000      0.0000000E+00
  -1.220000      0.0000000E+00
  -1.210000      0.0000000E+00
  -1.200000      0.0000000E+00
  -1.190000      0.0000000E+00
  -1.180000      0.0000000E+00
  -1.170000      0.0000000E+00
  -1.160000      0.0000000E+00
  -1.150000      0.0000000E+00
  -1.140000      0.0000000E+00
  -1.130000      0.0000000E+00
  -1.120000      0.0000000E+00
  -1.110000      0.0000000E+00
  -1.100000      0.0000000E+00
  -1.090000      0.0000000E+00
  -1.080000      0.0000000E+00
  -1.070000      0.0000000E+00
  -1.060000      0.0000000E+00
  -1.050000      0.0000000E+00
  -1.040000      0.0000000E+00
  -1.030000      0.0000000E+00
  -1.020000      0.0000000E+00
  -1.010000      0.0000000E+00
  -1.000000      0.0000000E+00
 -0.9900000      0.0000000E+00
 -0.9800000      0.0000000E+00
 -0.9700000      0.0000000E+00
 -0.9600000      0.0000000E+00
 -0.9500000      0.0000000E+00
 -0.9400000      0.0000000E+00
 -0.9300000      0.0000000E+00
 -0.9200000      0.0000000E+00
 -0.9100000      0.0000000E+00
 -0.9000000      0.0000000E+00
 -0.8900000      0.0000000E+00
 -0.8800000      0.0000000E+00
 -0.8700000      0.0000000E+00
 -0.8600000      0.0000000E+00
 -0.8500000      0.0000000E+00
 -0.8400000      0.0000000E+00
 -0.8300000      0.0000000E+00
 -0.8200000      0.0000000E+00
 -0.8100000      0.0000000E+00
 -0.8000000      0.0000000E+00
 -0.7900000      0.0000000E+00
 -0.7800000      0.0000000E+00
 -0.7700000      0.0000000E+00
 -0.7600000      0.0000000E+00
 -0.7500000      0.0000000E+00
 -0.7400000      0.0000000E+00
 -0.7300000      0.0000000E+00
 -0.7200000      0.0000000E+00
 -0.7100000      0.0000000E+00
 -0.7000000      0.0000000E+00
 -0.6900000      0.0000000E+00
 -0.6800000      0.0000000E+00
 -0.6700000      0.0000000E+00
 -0.6600000      0.0000000E+00
 -0.6500000      0.0000000E+00
 -0.6400000      0.0000000E+00
 -0.6300000      0.0000000E+00
 -0.6200000      0.0000000E+00
 -0.6100000      0.0000000E+00
 -0.6000000      0.0000000E+00
 -0.5900000      0.0000000E+00
 -0.5800000      0.0000000E+00
 -0.5700000      0.0000000E+00
 -0.5600000      0.0000000E+00
 -0.5500000      0.0000000E+00
 -0.5400000      0.0000000E+00
 -0.5300000      0.0000000E+00
 -0.5200000      0.0000000E+00
 -0.5100000      0.0000000E+00
 -0.5000000      0.0000000E+00
 -0.4900000      0.0000000E+00
 -0.4800000      0.0000000E+00
 -0.4700000      0.0000000E+00
 -0.4600000      0.0000000E+00
 -0.4500000      0.0000000E+00
 -0.4400000      0.0000000E+00
 -0.4300000      0.0000000E+00
 -0.4200000      0.0000000E+00
 -0.4100000      0.0000000E+00
 -0.4000000      0.0000000E+00
 -0.3900000      0.0000000E+00
 -0.3800000      0.0000000E+00
 -0.3700000      0.0000000E+00
 -0.3600000      0.0000000E+00
 -0.3500000      0.0000000E+00
 -0.3400000      0.0000000E+00
 -0.3300000      0.0000000E+00
 -0.3200000      0.0000000E+00
 -0.3100000      0.0000000E+00
 -0.3000000      0.0000000E+00
 -0.2900000      0.0000000E+00
 -0.2800000      0.0000000E+00
 -0.2700000      0.0000000E+00
 -0.2600000      0.0000000E+00
 -0.2500000      0.0000000E+00
 -0.2400000      0.0000000E+00
 -0.2300000      0.0000000E+00
 -0.2200000      0.0000000E+00
 -0.2100000      0.0000000E+00
 -0.2000000      0.0000000E+00
 -0.1900000      0.0000000E+00
 -0.1800000      0.0000000E+00
 -0.1700000      0.0000000E+00
 -0.1600000      0.0000000E+00
 -0.1500000      0.0000000E+00
 -0.1400000      0.0000000E+00
 -0.1300000      0.0000000E+00
 -0.1200000      0.0000000E+00
 -0.1100000      0.0000000E+00
 -0.1000000      0.0000000E+00
 -9.0000004E-02  0.0000000E+00
 -7.9999998E-02  0.0000000E+00
 -7.0000000E-02  0.0000000E+00
 -5.9999999E-02  0.0000000E+00
 -5.0000001E-02  0.0000000E+00
 -3.9999999E-02  0.0000000E+00
 -2.9999999E-02  0.0000000E+00
 -2.0000000E-02  0.0000000E+00
 -9.9999998E-03  0.0000000E+00
 -3.4694470E-17  0.0000000E+00
  9.9999998E-03  0.0000000E+00
  2.0000000E-02  0.0000000E+00
  2.9999999E-02  0.0000000E+00
  3.9999999E-02  0.0000000E+00
  5.0000001E-02  0.0000000E+00
  5.9999999E-02  0.0000000E+00
  7.0000000E-02  0.0000000E+00
  7.9999998E-02  0.0000000E+00
  9.0000004E-02  0.0000000E+00
  0.1000000      0.0000000E+00
  0.1100000      0.0000000E+00
  0.1200000      0.0000000E+00
  0.1300000      0.0000000E+00
  0.1400000      0.0000000E+00
  0.1500000      0.0000000E+00
  0.1600000      0.0000000E+00
  0.1700000      0.0000000E+00
  0.1800000      0.0000000E+00
  0.1900000      0.0000000E+00
  0.2000000      0.0000000E+00
  0.2100000      0.0000000E+00
  0.2200000      0.0000000E+00
  0.2300000      0.0000000E+00
  0.2400000      0.0000000E+00
  0.2500000      0.0000000E+00
  0.2600000      0.0000000E+00
  0.2700000      0.0000000E+00
  0.2800000      0.0000000E+00
  0.2900000      0.0000000E+00
  0.3000000      0.0000000E+00
  0.3100000      0.0000000E+00
  0.3200000      0.0000000E+00
  0.3300000      0.0000000E+00
  0.3400000      0.0000000E+00
  0.3500000      0.0000000E+00
  0.3600000      0.0000000E+00
  0.3700000      0.0000000E+00
  0.3800000      0.0000000E+00
  0.3900000      0.0000000E+00
  0.4000000      0.0000000E+00
  0.4100000      0.0000000E+00
  0.4200000      0.0000000E+00
  0.4300000      0.0000000E+00
  0.4400000      0.0000000E+00
  0.4500000      0.0000000E+00
  0.4600000      0.0000000E+00
  0.4700000      0.0000000E+00
  0.4800000      0.0000000E+00
  0.4900000      0.0000000E+00
  0.5000000      0.0000000E+00
  0.5100000      0.0000000E+00
  0.5200000      0.0000000E+00
  0.5300000      0.0000000E+00
  0.5400000      0.0000000E+00
  0.5500000      0.0000000E+00
  0.5600000      0.0000000E+00
  0.5700000      0.0000000E+00
  0.5800000      0.0000000E+00
  0.5900000      0.0000000E+00
  0.6000000      0.0000000E+00
  0.6100000      0.0000000E+00
  0.6200000      0.0000000E+00
  0.6300000      0.0000000E+00
  0.6400000      0.0000000E+00
  0.6500000      0.0000000E+00
  0.6600000      0.0000000E+00
  0.6700000      0.0000000E+00
  0.6800000      0.0000000E+00
  0.6900000      0.0000000E+00
  0.7000000      0.0000000E+00
  0.7100000      0.0000000E+00
  0.7200000      0.0000000E+00
  0.7300000      0.0000000E+00
  0.7400000      0.0000000E+00
  0.7500000      0.0000000E+00
  0.7600000      0.0000000E+00
  0.7700000      0.0000000E+00
  0.7800000      0.0000000E+00
  0.7900000      0.0000000E+00
  0.8000000      0.0000000E+00
  0.8100000      0.0000000E+00
  0.8200000      1.8020012E-38
  0.8300000      2.6113668E-38
  0.8400000      3.6163727E-38
  0.8500000      4.7731325E-38
  0.8600000      6.1225342E-38
  0.8700000      7.5758225E-38
  0.8800000      9.0367087E-38
  0.8900000      1.0454908E-37
  0.9000000      1.1849439E-37
  0.9100000      1.3267708E-37
  0.9200000      1.4694095E-37
  0.9300000      1.6136601E-37
  0.9400000      1.7456789E-37
  0.9500000      1.8538091E-37
  0.9600000      1.9269645E-37
  0.9700000      1.9729780E-37
  0.9800000      2.0299154E-37
  0.9900000      2.0817567E-37
   1.000000      2.0839602E-37
   1.010000      2.0410026E-37
   1.020000      1.9638028E-37
   1.030000      1.8407189E-37
   1.040000      1.6544208E-37
   1.050000      1.4166619E-37
   1.060000      1.1092680E-37
   1.070000      7.0760253E-38
   1.080000      2.0461142E-38
   1.090000     -4.4028815E-38
   1.100000     -1.2104011E-37
   1.110000     -2.0860218E-37
   1.120000     -3.0744616E-37
   1.130000     -4.2413121E-37
   1.140000     -5.6238170E-37
   1.150000     -7.1395686E-37
   1.160000     -8.7544868E-37
   1.170000     -1.0452558E-36
   1.180000     -1.2285351E-36
   1.190000     -1.4258462E-36
   1.200000     -1.6279223E-36
   1.210000     -1.8360708E-36
   1.220000     -2.0508321E-36
   1.230000     -2.2278441E-36
   1.240000     -2.3638790E-36
   1.250000     -2.4949010E-36
   1.260000     -2.6255033E-36
   1.270000     -2.7675375E-36
   1.280000     -2.9055634E-36
   1.290000     -3.0194087E-36
   1.300000     -3.1045624E-36
   1.310000     -3.0615429E-36
   1.320000     -2.7993967E-36
   1.330000     -2.4017361E-36
   1.340000     -1.9237675E-36
   1.350000     -1.3931292E-36
   1.360000     -7.7904536E-37
   1.370000      1.1082287E-37
   1.380000      1.2821737E-36
   1.390000      2.6187471E-36
   1.400000      4.1042413E-36
   1.410000      5.6450250E-36
   1.420000      7.2497036E-36
   1.430000      9.0333627E-36
   1.440000      1.0865507E-35
   1.450000      1.2650832E-35
   1.460000      1.4452118E-35
   1.470000      1.6275669E-35
   1.480000      1.8094411E-35
   1.490000      1.9843273E-35
   1.500000      2.1460324E-35
   1.510000      2.2886153E-35
   1.520000      2.4156848E-35
   1.530000      2.5354773E-35
   1.540000      2.6499285E-35
   1.550000      2.7544639E-35
   1.560000      2.8354944E-35
   1.570000      2.8878886E-35
   1.580000      2.9136060E-35
   1.590000      2.9148759E-35
   1.600000      2.8889455E-35
   1.610000      2.8290226E-35
   1.620000      2.7458127E-35
   1.630000      2.6279594E-35
   1.640000      2.4561320E-35
   1.650000      2.2342926E-35
   1.660000      1.9552799E-35
   1.670000      1.6156993E-35
   1.680000      1.2093517E-35
   1.690000      7.2689395E-36
   1.700000      1.7563128E-36
   1.710000     -4.3691171E-36
   1.720000     -1.1412982E-35
   1.730000     -1.9540138E-35
   1.740000     -2.8542403E-35
   1.750000     -3.8102519E-35
   1.760000     -4.8236520E-35
   1.770000     -5.9246132E-35
   1.780000     -7.1240324E-35
   1.790000     -8.4021759E-35
   1.800000     -9.7204486E-35
   1.810000     -1.1082653E-34
   1.820000     -1.2514356E-34
   1.830000     -1.4000525E-34
   1.840000     -1.5417085E-34
   1.850000     -1.6806112E-34
   1.860000     -1.8186549E-34
   1.870000     -1.9565619E-34
   1.880000     -2.0925074E-34
   1.890000     -2.2167553E-34
   1.900000     -2.3221078E-34
   1.910000     -2.3894522E-34
   1.920000     -2.4239116E-34
   1.930000     -2.4334905E-34
   1.940000     -2.4235071E-34
   1.950000     -2.4205210E-34
   1.960000     -2.4128372E-34
   1.970000     -2.3743530E-34
   1.980000     -2.3266553E-34
   1.990000     -2.2392187E-34
   2.000000     -2.0789274E-34
   2.010000     -1.8822671E-34
   2.020000     -1.6637773E-34
   2.030000     -1.3833538E-34
   2.040000     -1.0386853E-34
   2.050000     -6.2104839E-35
   2.060000     -6.7176632E-36
   2.070000      6.0350976E-35
   2.080000      1.3752110E-34
   2.090000      2.2554206E-34
   2.100000      3.2201456E-34
   2.110000      4.2641655E-34
   2.120000      5.3876892E-34
   2.130000      6.5755593E-34
   2.140000      7.7853092E-34
   2.150000      9.0456090E-34
   2.160000      1.0351048E-33
   2.170000      1.1652457E-33
   2.180000      1.2956152E-33
   2.190000      1.4244952E-33
   2.200000      1.5498414E-33
   2.210000      1.6701328E-33
   2.220000      1.7838854E-33
   2.230000      1.8904787E-33
   2.240000      1.9879817E-33
   2.250000      2.0731129E-33
   2.260000      2.1433036E-33
   2.270000      2.1962086E-33
   2.280000      2.2362193E-33
   2.290000      2.2638842E-33
   2.300000      2.2712652E-33
   2.310000      2.2566290E-33
   2.320000      2.2208692E-33
   2.330000      2.1606020E-33
   2.340000      2.0738444E-33
   2.350000      1.9582996E-33
   2.360000      1.8130702E-33
   2.370000      1.6373762E-33
   2.380000      1.4270006E-33
   2.390000      1.1796773E-33
   2.400000      8.9306190E-34
   2.410000      5.6435052E-34
   2.420000      1.9147897E-34
   2.430000     -2.2744165E-34
   2.440000     -6.9468672E-34
   2.450000     -1.2117553E-33
   2.460000     -1.7795993E-33
   2.470000     -2.3991772E-33
   2.480000     -3.0720573E-33
   2.490000     -3.7962513E-33
   2.500000     -4.5691105E-33
   2.510000     -5.3895656E-33
   2.520000     -6.2561293E-33
   2.530000     -7.1660420E-33
   2.540000     -8.1143699E-33
   2.550000     -9.0963265E-33
   2.560000     -1.0105962E-32
   2.570000     -1.1138191E-32
   2.580000     -1.2183510E-32
   2.590000     -1.3231432E-32
   2.600000     -1.4274344E-32
   2.610000     -1.5301738E-32
   2.620000     -1.6302318E-32
   2.630000     -1.7264086E-32
   2.640000     -1.8174093E-32
   2.650000     -1.9018658E-32
   2.660000     -1.9783630E-32
   2.670000     -2.0453990E-32
   2.680000     -2.1014114E-32
   2.690000     -2.1448185E-32
   2.700000     -2.1739888E-32
   2.710000     -2.1872604E-32
   2.720000     -2.1829456E-32
   2.730000     -2.1593461E-32
   2.740000     -2.1147592E-32
   2.750000     -2.0474768E-32
   2.760000     -1.9558041E-32
   2.770000     -1.8380739E-32
   2.780000     -1.6926544E-32
   2.790000     -1.5179642E-32
   2.800000     -1.3124890E-32
   2.810000     -1.0747978E-32
   2.820000     -8.0356573E-33
   2.830000     -4.9759491E-33
   2.840000     -1.5583565E-33
   2.850000      2.2258882E-33
   2.860000      6.3835316E-33
   2.870000      1.0919063E-32
   2.880000      1.5834422E-32
   2.890000      2.1128756E-32
   2.900000      2.6798197E-32
   2.910000      3.2835516E-32
   2.920000      3.9229858E-32
   2.930000      4.5966499E-32
   2.940000      5.3026615E-32
   2.950000      6.0387102E-32
   2.960000      6.8020274E-32
   2.970000      7.5893671E-32
   2.980000      8.3969928E-32
   2.990000      9.2206523E-32
   3.000000      1.0055567E-31
   3.010000      1.0896429E-31
   3.020000      1.1737390E-31
   3.030000      1.2572052E-31
   3.040000      1.3393480E-31
   3.050000      1.4194204E-31
   3.060000      1.4966232E-31
   3.070000      1.5701067E-31
   3.080000      1.6389734E-31
   3.090000      1.7022807E-31
   3.100000      1.7590441E-31
   3.110000      1.8082412E-31
   3.120000      1.8488169E-31
   3.130000      1.8796876E-31
   3.140000      1.8997471E-31
   3.150000      1.9078725E-31
   3.160000      1.9029310E-31
   3.170000      1.8837866E-31
   3.180000      1.8493082E-31
   3.190000      1.7983773E-31
   3.200000      1.7298966E-31
   3.210000      1.6427998E-31
   3.220000      1.5360613E-31
   3.230000      1.4087060E-31
   3.240000      1.2598210E-31
   3.250000      1.0885669E-31
   3.260000      8.9418927E-32
   3.270000      6.7603186E-32
   3.280000      4.3354850E-32
   3.290000      1.6631646E-32
   3.300000     -1.2594996E-32
   3.310000     -4.4338627E-32
   3.320000     -7.8596438E-32
   3.330000     -1.1534785E-31
   3.340000     -1.5455323E-31
   3.350000     -1.9615253E-31
   3.360000     -2.4006399E-31
   3.370000     -2.8618285E-31
   3.380000     -3.3438007E-31
   3.390000     -3.8450131E-31
   3.400000     -4.3636527E-31
   3.410000     -4.8976413E-31
   3.420000     -5.4446166E-31
   3.430000     -6.0019166E-31
   3.440000     -6.5665851E-31
   3.450000     -7.1353636E-31
   3.460000     -7.7046893E-31
   3.470000     -8.2706917E-31
   3.480000     -8.8291954E-31
   3.490000     -9.3757241E-31
   3.500000     -9.9055035E-31
   3.510000     -1.0413472E-30
   3.520000     -1.0894294E-30
   3.530000     -1.1342366E-30
   3.540000     -1.1751843E-30
   3.550000     -1.2116651E-30
   3.560000     -1.2430511E-30
   3.570000     -1.2686967E-30
   3.580000     -1.2879411E-30
   3.590000     -1.3001119E-30
   3.600000     -1.3045283E-30
   3.610000     -1.3005052E-30
   3.620000     -1.2873568E-30
   3.630000     -1.2644020E-30
   3.640000     -1.2309682E-30
   3.650000     -1.1863973E-30
   3.660000     -1.1300505E-30
   3.670000     -1.0613145E-30
   3.680000     -9.7960734E-31
   3.690000     -8.8438487E-31
   3.700000     -7.7514726E-31
   3.710000     -6.5144604E-31
   3.720000     -5.1289108E-31
   3.730000     -3.5915796E-31
   3.740000     -1.8999552E-31
   3.750000     -5.2336726E-33
   3.760000      1.9520896E-31
   3.770000      4.1131713E-31
   3.780000      6.4297087E-31
   3.790000      8.8993762E-31
   3.800000      1.1518644E-30
   3.810000      1.4282693E-30
   3.820000      1.7185344E-30
   3.830000      2.0218984E-30
   3.840000      2.3374483E-30
   3.850000      2.6641137E-30
   3.860000      3.0006592E-30
   3.870000      3.3456789E-30
   3.880000      3.6975899E-30
   3.890000      4.0546291E-30
   3.900000      4.4148476E-30
   3.910000      4.7761069E-30
   3.920000      5.1360775E-30
   3.930000      5.4922365E-30
   3.940000      5.8418684E-30
   3.950000      6.1820621E-30
   3.960000      6.5097177E-30
   3.970000      6.8215446E-30
   3.980000      7.1140685E-30
   3.990000      7.3836370E-30
   4.000000      7.6264253E-30
   4.010000      7.8384476E-30
   4.020000      8.0155639E-30
   4.030000      8.1534951E-30
   4.040000      8.2478364E-30
   4.050000      8.2940715E-30
   4.060000      8.2875918E-30
   4.070000      8.2237148E-30
   4.080000      8.0977079E-30
   4.090000      7.9048079E-30
   4.100000      7.6402521E-30
   4.110000      7.2993031E-30
   4.120000      6.8772769E-30
   4.130000      6.3695769E-30
   4.140000      5.7717314E-30
   4.150000      5.0794239E-30
   4.160000      4.2885352E-30
   4.170000      3.3951832E-30
   4.180000      2.3957656E-30
   4.190000      1.2870055E-30
   4.200000      6.5994927E-32
   4.210000     -1.2697543E-30
   4.220000     -2.7222615E-30
   4.230000     -4.2930269E-30
   4.240000     -5.9829762E-30
   4.250000     -7.7924081E-30
   4.260000     -9.7209403E-30
   4.270000     -1.1767452E-29
   4.280000     -1.3930027E-29
   4.290000     -1.6205894E-29
   4.300000     -1.8591375E-29
   4.310000     -2.1081824E-29
   4.320000     -2.3671573E-29
   4.330000     -2.6353875E-29
   4.340000     -2.9120849E-29
   4.350000     -3.1963432E-29
   4.360000     -3.4871315E-29
   4.370000     -3.7832905E-29
   4.380000     -4.0835279E-29
   4.390000     -4.3864135E-29
   4.400000     -4.6903758E-29
   4.410000     -4.9936968E-29
   4.420000     -5.2945120E-29
   4.430000     -5.5908049E-29
   4.440000     -5.8804064E-29
   4.450000     -6.1609921E-29
   4.460000     -6.4300836E-29
   4.470000     -6.6850467E-29
   4.480000     -6.9230910E-29
   4.490000     -7.1412754E-29
   4.500000     -7.3365063E-29
   4.510000     -7.5055434E-29
   4.520000     -7.6450030E-29
   4.530000     -7.7513637E-29
   4.540000     -7.8209740E-29
   4.550000     -7.8500586E-29
   4.560000     -7.8347282E-29
   4.570000     -7.7709883E-29
   4.580000     -7.6547542E-29
   4.590000     -7.4818623E-29
   4.600000     -7.2480827E-29
   4.610000     -6.9491380E-29
   4.620000     -6.5807197E-29
   4.630000     -6.1385087E-29
   4.640000     -5.6181946E-29
   4.650000     -5.0154992E-29
   4.660000     -4.3262005E-29
   4.670000     -3.5461585E-29
   4.680000     -2.6713431E-29
   4.690000     -1.6978631E-29
   4.700000     -6.2199965E-30
   4.710000      5.5976394E-30
   4.720000      1.8507078E-29
   4.730000      3.2538367E-29
   4.740000      4.7718411E-29
   4.750000      6.4070616E-29
   4.760000      8.1614459E-29
   4.770000      1.0036504E-28
   4.780000      1.2033268E-28
   4.790000      1.4152241E-28
   4.800000      1.6393358E-28
   4.810000      1.8755930E-28
   4.820000      2.1238602E-28
   4.830000      2.3839293E-28
   4.840000      2.6555160E-28
   4.850000      2.9382536E-28
   4.860000      3.2316873E-28
   4.870000      3.5352710E-28
   4.880000      3.8483602E-28
   4.890000      4.1702074E-28
   4.900000      4.4999575E-28
   4.910000      4.8366423E-28
   4.920000      5.1791747E-28
   4.930000      5.5263462E-28
   4.940000      5.8768202E-28
   4.950000      6.2291277E-28
   4.960000      6.5816648E-28
   4.970000      6.9326867E-28
   4.980000      7.2803046E-28
   4.990000      7.6224850E-28
   5.000000      7.9570422E-28
   5.010000      8.2816403E-28
   5.020000      8.5937864E-28
   5.030000      8.8908370E-28
   5.040000      9.1699880E-28
   5.050000      9.4282822E-28
   5.060000      9.6626033E-28
   5.070000      9.8696841E-28
   5.080000      1.0046102E-27
   5.090000      1.0188287E-27
   5.100000      1.0292520E-27
   5.110000      1.0354945E-27
   5.120000      1.0371570E-27
   5.130000      1.0338273E-27
   5.140000      1.0250813E-27
   5.150000      1.0104838E-27
   5.160000      9.8958932E-28
   5.170000      9.6194375E-28
   5.180000      9.2708509E-28
   5.190000      8.8454544E-28
   5.200000      8.3385246E-28
   5.210000      7.7453064E-28
   5.220000      7.0610360E-28
   5.230000      6.2809645E-28
   5.240000      5.4003745E-28
   5.250000      4.4146051E-28
   5.260000      3.3190774E-28
   5.270000      2.1093242E-28
   5.280000      7.8101930E-29
   5.290000     -6.6999630E-29
   5.300000     -2.2476772E-28
   5.310000     -3.9557436E-28
   5.320000     -5.7976409E-28
   5.330000     -7.7765036E-28
   5.340000     -9.8951180E-28
   5.350000     -1.2155880E-27
   5.360000     -1.4560747E-27
   5.370000     -1.7111196E-27
   5.380000     -1.9808188E-27
   5.390000     -2.2652104E-27
   5.400000     -2.5642710E-27
   5.410000     -2.8779094E-27
   5.420000     -3.2059627E-27
   5.430000     -3.5481900E-27
   5.440000     -3.9042679E-27
   5.450000     -4.2737845E-27
   5.460000     -4.6562353E-27
   5.470000     -5.0510144E-27
   5.480000     -5.4574133E-27
   5.490000     -5.8746125E-27
   5.500000     -6.3016755E-27
   5.510000     -6.7375462E-27
   5.520000     -7.1810409E-27
   5.530000     -7.6308449E-27
   5.540000     -8.0855061E-27
   5.550000     -8.5434299E-27
   5.560000     -9.0028743E-27
   5.570000     -9.4619482E-27
   5.580000     -9.9186024E-27
   5.590000     -1.0370629E-26
   5.600000     -1.0815657E-26
   5.610000     -1.1251149E-26
   5.620000     -1.1674400E-26
   5.630000     -1.2082530E-26
   5.640000     -1.2472489E-26
   5.650000     -1.2841053E-26
   5.660000     -1.3184821E-26
   5.670000     -1.3500217E-26
   5.680000     -1.3783495E-26
   5.690000     -1.4030736E-26
   5.700000     -1.4237848E-26
   5.710000     -1.4400580E-26
   5.720000     -1.4514517E-26
   5.730000     -1.4575083E-26
   5.740000     -1.4577564E-26
   5.750000     -1.4517093E-26
   5.760000     -1.4388681E-26
   5.770000     -1.4187210E-26
   5.780000     -1.3907458E-26
   5.790000     -1.3544098E-26
   5.800000     -1.3091728E-26
   5.810000     -1.2544872E-26
   5.820000     -1.1898010E-26
   5.830000     -1.1145585E-26
   5.840000     -1.0282034E-26
   5.850000     -9.3018025E-27
   5.860000     -8.1993771E-27
   5.870000     -6.9693003E-27
   5.880000     -5.6062053E-27
   5.890000     -4.1048447E-27
   5.900000     -2.4601205E-27
   5.910000     -6.6711387E-28
   5.920000      1.2788763E-27
   5.930000      3.3822966E-27
   5.940000      5.6473038E-27
   5.950000      8.0777223E-27
   5.960000      1.0677004E-26
   5.970000      1.3448183E-26
   5.980000      1.6393830E-26
   5.990000      1.9516009E-26
   6.000000      2.2816224E-26
   6.010000      2.6295369E-26
   6.020000      2.9953677E-26
   6.030000      3.3790672E-26
   6.040000      3.7805114E-26
   6.050000      4.1994936E-26
   6.060000      4.6357195E-26
   6.070000      5.0888015E-26
   6.080000      5.5582523E-26
   6.090000      6.0434807E-26
   6.100000      6.5437836E-26
   6.110000      7.0583422E-26
   6.120000      7.5862140E-26
   6.130000      8.1263304E-26
   6.140000      8.6774866E-26
   6.150000      9.2383408E-26
   6.160000      9.8074041E-26
   6.170000      1.0383039E-25
   6.180000      1.0963453E-25
   6.190000      1.1546694E-25
   6.200000      1.2130642E-25
   6.210000      1.2713011E-25
   6.220000      1.3291344E-25
   6.230000      1.3863002E-25
   6.240000      1.4425171E-25
   6.250000      1.4974854E-25
   6.260000      1.5508869E-25
   6.270000      1.6023849E-25
   6.280000      1.6516239E-25
   6.290000      1.6982298E-25
   6.300000      1.7418098E-25
   6.310000      1.7819527E-25
   6.320000      1.8182287E-25
   6.330000      1.8501903E-25
   6.340000      1.8773720E-25
   6.350000      1.8992913E-25
   6.360000      1.9154496E-25
   6.370000      1.9253314E-25
   6.380000      1.9284067E-25
   6.390000      1.9241315E-25
   6.400000      1.9119481E-25
   6.410000      1.8912872E-25
   6.420000      1.8615692E-25
   6.430000      1.8222048E-25
   6.440000      1.7725974E-25
   6.450000      1.7121444E-25
   6.460000      1.6402395E-25
   6.470000      1.5562742E-25
   6.480000      1.4596403E-25
   6.490000      1.3497328E-25
   6.500000      1.2259514E-25
   6.510000      1.0877040E-25
   6.520000      9.3440895E-26
   6.530000      7.6549885E-26
   6.540000      5.8042308E-26
   6.550000      3.7865151E-26
   6.560000      1.5967763E-26
   6.570000     -7.6977001E-27
   6.580000     -3.3175934E-26
   6.590000     -6.0508072E-26
   6.600000     -8.9731295E-26
   6.610000     -1.2087838E-25
   6.620000     -1.5397725E-25
   6.630000     -1.8905049E-25
   6.640000     -2.2611492E-25
   6.650000     -2.6518099E-25
   6.660000     -3.0625239E-25
   6.670000     -3.4932556E-25
   6.680000     -3.9438906E-25
   6.690000     -4.4142309E-25
   6.700000     -4.9039893E-25
   6.710000     -5.4127859E-25
   6.720000     -5.9401389E-25
   6.730000     -6.4854627E-25
   6.740000     -7.0480605E-25
   6.750000     -7.6271194E-25
   6.760000     -8.2217056E-25
   6.770000     -8.8307575E-25
   6.780000     -9.4530829E-25
   6.790000     -1.0087351E-24
   6.800000     -1.0732090E-24
   6.810000     -1.1385681E-24
   6.820000     -1.2046353E-24
   6.830000     -1.2712181E-24
   6.840000     -1.3381080E-24
   6.850000     -1.4050800E-24
   6.860000     -1.4718925E-24
   6.870000     -1.5382869E-24
   6.880000     -1.6039873E-24
   6.890000     -1.6687005E-24
   6.900000     -1.7321157E-24
   6.910000     -1.7939038E-24
   6.920000     -1.8537184E-24
   6.930000     -1.9111956E-24
   6.940000     -1.9659530E-24
   6.950000     -2.0175908E-24
   6.960000     -2.0656924E-24
   6.970000     -2.1098237E-24
   6.980000     -2.1495338E-24
   6.990000     -2.1843555E-24
   7.000000     -2.2138060E-24
   7.010000     -2.2373878E-24
   7.020000     -2.2545887E-24
   7.030000     -2.2648834E-24
   7.040000     -2.2677333E-24
   7.050000     -2.2625895E-24
   7.060000     -2.2488920E-24