  -2.600000      0.0000000E+00
  -2.590000      0.0000000E+00
  -2.580000      0.0000000E+00
  -2.570000      0.0000000E+00
  -2.560000      0.0000000E+00
  -2.550000      0.0000000E+00
  -2.540000      0.0000000E+00
  -2.530000      0.0000000E+00
  -2.520000      0.0000000E+00
  -2.510000      0.0000000E+00
  -2.500000      0.0000000E+00
  -2.490000      0.0000000E+00
  -2.480000      0.0000000E+00
  -2.470000      0.0000000E+00
  -2.460000      0.0000000E+00
  -2.450000      0.0000000E+00
  -2.440000      0.0000000E+00
  -2.430000      0.0000000E+00
  -2.420000      0.0000000E+00
  -2.410000      0.0000000E+00
  -2.400000      0.0000000E+00
  -2.390000      0.0000000E+00
  -2.380000      0.0000000E+00
  -2.370000      0.0000000E+00
  -2.360000      0.0000000E+00
  -2.350000      0.0000000E+00
  -2.340000      0.0000000E+00
  -2.330000      0.0000000E+00
  -2.320000      0.0000000E+00
  -2.310000      0.0000000E+00
  -2.300000      0.0000000E+00
  -2.290000      0.0000000E+00
  -2.280000      0.0000000E+00
  -2.270000      0.0000000E+00
  -2.260000      0.0000000E+00
  -2.250000      0.0000000E+00
  -2.240000      0.0000000E+00
  -2.230000      0.0000000E+00
  -2.220000      0.0000000E+00
  -2.210000      0.0000000E+00
  -2.200000      0.0000000E+00
  -2.190000      0.0000000E+00
  -2.180000      0.0000000E+00
  -2.170000      0.0000000E+00
  -2.160000      0.0000000E+00
  -2.150000      0.0000000E+00
  -2.140000      0.0000000E+00
  -2.130000      0.0000000E+00
  -2.120000      0.0000000E+00
  -2.110000      0.0000000E+00
  -2.100000      0.0000000E+00
  -2.090000      0.0000000E+00
  -2.080000      0.0000000E+00
  -2.070000      0.0000000E+00
  -2.060000      0.0000000E+00
  -2.050000      0.0000000E+00
  -2.040000      0.0000000E+00
  -2.030000      0.0000000E+00
  -2.020000      0.0000000E+00
  -2.010000      0.0000000E+00
  -2.000000      0.0000000E+00
  -1.990000      0.0000000E+00
  -1.980000      0.0000000E+00
  -1.970000      0.0000000E+00
  -1.960000      0.0000000E+00
  -1.950000      0.0000000E+00
  -1.940000      0.0000000E+00
  -1.930000      0.0000000E+00
  -1.920000      0.0000000E+00
  -1.910000      0.0000000E+00
  -1.900000      0.0000000E+00
  -1.890000      0.0000000E+00
  -1.880000      0.0000000E+00
  -1.870000      0.0000000E+00
  -1.860000      0.0000000E+00
  -1.850000      0.0000000E+00
  -1.840000      0.0000000E+00
  -1.830000      0.0000000E+00
  -1.820000      0.0000000E+00
  -1.810000      0.0000000E+00
  -1.800000      0.0000000E+00
  -1.790000      0.0000000E+00
  -1.780000      0.0000000E+00
  -1.770000      0.0000000E+00
  -1.760000      0.0000000E+00
  -1.750000      0.0000000E+00
  -1.740000      0.0000000E+00
  -1.730000      0.0000000E+00
  -1.720000      0.0000000E+00
  -1.710000      0.0000000E+00
  -1.700000      0.0000000E+00
  -1.690000      0.0000000E+00
  -1.680000      0.0000000E+00
  -1.670000      0.0000000E+00
  -1.660000      0.0000000E+00
  -1.650000      0.0000000E+00
  -1.640000      0.0000000E+00
  -1.630000      0.0000000E+00
  -1.620000      0.0000000E+00
  -1.610000      0.0000000E+00
  -1.600000      0.0000000E+00
  -1.590000      0.0000000E+00
  -1.580000      0.0000000E+00
  -1.570000      0.0000000E+00
  -1.560000      0.0000000E+00
  -1.550000      0.0000000E+00
  -1.540000      0.0000000E+00
  -1.530000      0.0000000E+00
  -1.520000      0.0000000E+00
  -1.510000      0.0000000E+00
  -1.500000      0.0000000E+00
  -1.490000      0.0000000E+00
  -1.480000      0.0000000E+00
  -1.470000      0.0000000E+00
  -1.460000      0.0000000E+00
  -1.450000      0.0000000E+00
  -1.440000      0.0000000E+00
  -1.430000      0.0000000E+00
  -1.420000      0.0000000E+00
  -1.410000      0.0000000E+00
  -1.400000      0.0000000E+00
  -1.390000      0.0000000E+00
  -1.380000      0.0000000E+00
  -1.370000      0.0000000E+00
  -1.360000      0.0000000E+00
  -1.350000      0.0000000E+00
  -1.340000      0.0000000E+00
  -1.330000      0.0000000E+00
  -1.320000      0.0000000E+00
  -1.310000      0.0000000E+00
  -1.300000      0.0000000E+00
  -1.290000      0.0000000E+00
  -1.280000      0.0000000E+00
  -1.270000      0.0000000E+00
  -1.260000      0.0000000E+00
  -1.250000      0.0000000E+00
  -1.240000      0.0000000E+00
  -1.230000      0.0000000E+00
  -1.220000      0.0000000E+00
  -1.210000      0.0000000E+00
  -1.200000      0.0000000E+00
  -1.190000      0.0000000E+00
  -1.180000      0.0000000E+00
  -1.170000      0.0000000E+00
  -1.160000      0.0000000E+00
  -1.150000      0.0000000E+00
  -1.140000      0.0000000E+00
  -1.130000      0.0000000E+00
  -1.120000      0.0000000E+00
  -1.110000      0.0000000E+00
  -1.100000      0.0000000E+00
  -1.090000      0.0000000E+00
  -1.080000      0.0000000E+00
  -1.070000      0.0000000E+00
  -1.060000      0.0000000E+00
  -1.050000      0.0000000E+00
  -1.040000      0.0000000E+00
  -1.030000      0.0000000E+00
  -1.020000      0.0000000E+00
  -1.010000      0.0000000E+00
  -1.000000      0.0000000E+00
 -0.9900000      0.0000000E+00
 -0.9800000      0.0000000E+00
 -0.9700000      0.0000000E+00
 -0.9600000      0.0000000E+00
 -0.9500000      0.0000000E+00
 -0.9400000      0.0000000E+00
 -0.9300000      0.0000000E+00
 -0.9200000      0.0000000E+00
 -0.9100000      0.0000000E+00
 -0.9000000      0.0000000E+00
 -0.8900000      0.0000000E+00
 -0.8800000      0.0000000E+00
 -0.8700000      0.0000000E+00
 -0.8600000      0.0000000E+00
 -0.8500000      0.0000000E+00
 -0.8400000      0.0000000E+00
 -0.8300000      0.0000000E+00
 -0.8200000      0.0000000E+00
 -0.8100000      0.0000000E+00
 -0.8000000      0.0000000E+00
 -0.7900000      0.0000000E+00
 -0.7800000      0.0000000E+00
 -0.7700000      0.0000000E+00
 -0.7600000      0.0000000E+00
 -0.7500000      0.0000000E+00
 -0.7400000      0.0000000E+00
 -0.7300000      0.0000000E+00
 -0.7200000      0.0000000E+00
 -0.7100000      0.0000000E+00
 -0.7000000      0.0000000E+00
 -0.6900000      0.0000000E+00
 -0.6800000      0.0000000E+00
 -0.6700000      0.0000000E+00
 -0.6600000      0.0000000E+00
 -0.6500000      0.0000000E+00
 -0.6400000      0.0000000E+00
 -0.6300000      0.0000000E+00
 -0.6200000      0.0000000E+00
 -0.6100000      0.0000000E+00
 -0.6000000      0.0000000E+00
 -0.5900000      0.0000000E+00
 -0.5800000      0.0000000E+00
 -0.5700000      0.0000000E+00
 -0.5600000      0.0000000E+00
 -0.5500000      0.0000000E+00
 -0.5400000      0.0000000E+00
 -0.5300000      0.0000000E+00
 -0.5200000      0.0000000E+00
 -0.5100000      0.0000000E+00
 -0.5000000      0.0000000E+00
 -0.4900000      0.0000000E+00
 -0.4800000      0.0000000E+00
 -0.4700000      0.0000000E+00
 -0.4600000      0.0000000E+00
 -0.4500000      0.0000000E+00
 -0.4400000      0.0000000E+00
 -0.4300000      0.0000000E+00
 -0.4200000      0.0000000E+00
 -0.4100000      0.0000000E+00
 -0.4000000      0.0000000E+00
 -0.3900000      0.0000000E+00
 -0.3800000      0.0000000E+00
 -0.3700000      0.0000000E+00
 -0.3600000      0.0000000E+00
 -0.3500000      0.0000000E+00
 -0.3400000      0.0000000E+00
 -0.3300000      0.0000000E+00
 -0.3200000      0.0000000E+00
 -0.3100000      0.0000000E+00
 -0.3000000      0.0000000E+00
 -0.2900000      0.0000000E+00
 -0.2800000      0.0000000E+00
 -0.2700000      0.0000000E+00
 -0.2600000      0.0000000E+00
 -0.2500000      0.0000000E+00
 -0.2400000      0.0000000E+00
 -0.2300000      0.0000000E+00
 -0.2200000      0.0000000E+00
 -0.2100000      0.0000000E+00
 -0.2000000      0.0000000E+00
 -0.1900000      0.0000000E+00
 -0.1800000      0.0000000E+00
 -0.1700000      0.0000000E+00
 -0.1600000      0.0000000E+00
 -0.1500000      0.0000000E+00
 -0.1400000      0.0000000E+00
 -0.1300000      0.0000000E+00
 -0.1200000      0.0000000E+00
 -0.1100000      0.0000000E+00
 -0.1000000      0.0000000E+00
 -9.0000004E-02  0.0000000E+00
 -7.9999998E-02  0.0000000E+00
 -7.0000000E-02  0.0000000E+00
 -5.9999999E-02  0.0000000E+00
 -5.0000001E-02  0.0000000E+00
 -3.9999999E-02  0.0000000E+00
 -2.9999999E-02  0.0000000E+00
 -2.0000000E-02  0.0000000E+00
 -9.9999998E-03  0.0000000E+00
 -3.4694470E-17  0.0000000E+00
  9.9999998E-03  0.0000000E+00
  2.0000000E-02  0.0000000E+00
  2.9999999E-02  0.0000000E+00
  3.9999999E-02  0.0000000E+00
  5.0000001E-02  0.0000000E+00
  5.9999999E-02  0.0000000E+00
  7.0000000E-02  0.0000000E+00
  7.9999998E-02  0.0000000E+00
  9.0000004E-02  0.0000000E+00
  0.1000000      0.0000000E+00
  0.1100000      0.0000000E+00
  0.1200000      0.0000000E+00
  0.1300000      0.0000000E+00
  0.1400000      0.0000000E+00
  0.1500000      0.0000000E+00
  0.1600000      0.0000000E+00
  0.1700000      0.0000000E+00
  0.1800000      0.0000000E+00
  0.1900000      0.0000000E+00
  0.2000000      0.0000000E+00
  0.2100000      0.0000000E+00
  0.2200000      0.0000000E+00
  0.2300000      0.0000000E+00
  0.2400000      0.0000000E+00
  0.2500000      0.0000000E+00
  0.2600000      0.0000000E+00
  0.2700000      0.0000000E+00
  0.2800000      0.0000000E+00
  0.2900000      0.0000000E+00
  0.3000000      0.0000000E+00
  0.3100000      0.0000000E+00
  0.3200000      0.0000000E+00
  0.3300000      0.0000000E+00
  0.3400000      0.0000000E+00
  0.3500000      0.0000000E+00
  0.3600000      0.0000000E+00
  0.3700000      0.0000000E+00
  0.3800000      0.0000000E+00
  0.3900000      0.0000000E+00
  0.4000000      0.0000000E+00
  0.4100000      0.0000000E+00
  0.4200000      0.0000000E+00
  0.4300000      0.0000000E+00
  0.4400000      0.0000000E+00
  0.4500000      0.0000000E+00
  0.4600000      0.0000000E+00
  0.4700000      0.0000000E+00
  0.4800000      0.0000000E+00
  0.4900000      0.0000000E+00
  0.5000000      0.0000000E+00
  0.5100000      0.0000000E+00
  0.5200000      0.0000000E+00
  0.5300000      0.0000000E+00
  0.5400000      0.0000000E+00
  0.5500000      0.0000000E+00
  0.5600000      0.0000000E+00
  0.5700000      0.0000000E+00
  0.5800000      0.0000000E+00
  0.5900000      0.0000000E+00
  0.6000000      0.0000000E+00
  0.6100000      0.0000000E+00
  0.6200000      0.0000000E+00
  0.6300000      0.0000000E+00
  0.6400000      0.0000000E+00
  0.6500000      0.0000000E+00
  0.6600000      0.0000000E+00
  0.6700000      0.0000000E+00
  0.6800000      0.0000000E+00
  0.6900000      0.0000000E+00
  0.7000000      1.5335516E-38
  0.7100000      1.9945187E-38
  0.7200000      2.5041871E-38
  0.7300000      3.0504608E-38
  0.7400000      3.6064142E-38
  0.7500000      4.1856275E-38
  0.7600000      4.8749912E-38
  0.7700000      5.7541009E-38
  0.7800000      6.7776485E-38
  0.7900000      7.8568025E-38
  0.8000000      8.9005849E-38
  0.8100000      9.7632444E-38
  0.8200000      1.0391288E-37
  0.8300000      1.1029679E-37
  0.8400000      1.1674203E-37
  0.8500000      1.2261012E-37
  0.8600000      1.3028781E-37
  0.8700000      1.3665076E-37
  0.8800000      1.3913571E-37
  0.8900000      1.3879248E-37
  0.9000000      1.3547334E-37
  0.9100000      1.2855491E-37
  0.9200000      1.1722984E-37
  0.9300000      1.0361881E-37
  0.9400000      8.7368291E-38
  0.9500000      6.4561267E-38
  0.9600000      3.3820706E-38
  0.9700000      0.0000000E+00
  0.9800000     -4.8997107E-38
  0.9900000     -1.0529449E-37
   1.000000     -1.8133918E-37
   1.010000     -2.7465941E-37
   1.020000     -3.7712000E-37
   1.030000     -4.9028429E-37
   1.040000     -6.1404549E-37
   1.050000     -7.4544881E-37
   1.060000     -8.8147978E-37
   1.070000     -1.0165084E-36
   1.080000     -1.1557723E-36
   1.090000     -1.3096823E-36
   1.100000     -1.4751702E-36
   1.110000     -1.6437739E-36
   1.120000     -1.8076013E-36
   1.130000     -1.9758701E-36
   1.140000     -2.1483849E-36
   1.150000     -2.3085101E-36
   1.160000     -2.4561606E-36
   1.170000     -2.5771327E-36
   1.180000     -2.6614234E-36
   1.190000     -2.7165621E-36
   1.200000     -2.7545006E-36
   1.210000     -2.7771113E-36
   1.220000     -2.7637659E-36
   1.230000     -2.5584896E-36
   1.240000     -2.1588082E-36
   1.250000     -1.7076385E-36
   1.260000     -1.1900692E-36
   1.270000     -5.7677839E-37
   1.280000      1.4072625E-37
   1.290000      9.2731242E-37
   1.300000      1.7814554E-36
   1.310000      2.7623907E-36
   1.320000      3.8671967E-36
   1.330000      4.8321793E-36
   1.340000      5.6200235E-36
   1.350000      6.4647454E-36
   1.360000      7.1253978E-36
   1.370000      7.5311363E-36
   1.380000      7.9154119E-36
   1.390000      8.3100943E-36
   1.400000      8.7309972E-36
   1.410000      9.1506481E-36
   1.420000      9.5512561E-36
   1.430000      1.0038118E-35
   1.440000      1.0671623E-35
   1.450000      1.1314034E-35
   1.460000      1.1972602E-35
   1.470000      1.2790852E-35
   1.480000      1.3921768E-35
   1.490000      1.5388053E-35
   1.500000      1.6920036E-35
   1.510000      1.8292625E-35
   1.520000      1.9492609E-35
   1.530000      2.0886445E-35
   1.540000      2.2591291E-35
   1.550000      2.4347102E-35
   1.560000      2.5749953E-35
   1.570000      2.6756091E-35
   1.580000      2.7655680E-35
   1.590000      2.8387933E-35
   1.600000      2.8870864E-35
   1.610000      2.8946884E-35
   1.620000      2.8784312E-35
   1.630000      2.8437249E-35
   1.640000      2.7553656E-35
   1.650000      2.6020664E-35
   1.660000      2.3819243E-35
   1.670000      2.1006358E-35
   1.680000      1.7400802E-35
   1.690000      1.2514466E-35
   1.700000      6.5537139E-36
   1.710000      2.9957622E-37
   1.720000     -6.4412004E-36
   1.730000     -1.4151266E-35
   1.740000     -2.2684937E-35
   1.750000     -3.1824194E-35
   1.760000     -4.1436182E-35
   1.770000     -5.2275227E-35
   1.780000     -6.4852442E-35
   1.790000     -7.9146075E-35
   1.800000     -9.5059892E-35
   1.810000     -1.1233052E-34
   1.820000     -1.3122650E-34
   1.830000     -1.5153556E-34
   1.840000     -1.7286482E-34
   1.850000     -1.9535421E-34
   1.860000     -2.1874329E-34
   1.870000     -2.4290955E-34
   1.880000     -2.6641464E-34
   1.890000     -2.8990021E-34
   1.900000     -3.1453019E-34
   1.910000     -3.3916190E-34
   1.920000     -3.6327053E-34
   1.930000     -3.8639427E-34
   1.940000     -4.0975547E-34
   1.950000     -4.3464753E-34
   1.960000     -4.6015489E-34
   1.970000     -4.8276901E-34
   1.980000     -5.0187079E-34
   1.990000     -5.1723120E-34
   2.000000     -5.2621689E-34
   2.010000     -5.2966384E-34
   2.020000     -5.2857701E-34
   2.030000     -5.1985475E-34
   2.040000     -5.0237198E-34
   2.050000     -4.7555786E-34
   2.060000     -4.3695145E-34
   2.070000     -3.8977101E-34
   2.080000     -3.4032747E-34
   2.090000     -2.8983462E-34
   2.100000     -2.3427201E-34
   2.110000     -1.7124031E-34
   2.120000     -9.9937901E-35
   2.130000     -2.0385773E-35
   2.140000      6.7546064E-35
   2.150000      1.6724368E-34
   2.160000      2.8020968E-34
   2.170000      4.0477211E-34
   2.180000      5.4357921E-34
   2.190000      6.9858063E-34
   2.200000      8.6916677E-34
   2.210000      1.0570857E-33
   2.220000      1.2595484E-33
   2.230000      1.4766003E-33
   2.240000      1.7106874E-33
   2.250000      1.9601704E-33
   2.260000      2.2238717E-33
   2.270000      2.4998728E-33
   2.280000      2.7853436E-33
   2.290000      3.0775544E-33
   2.300000      3.3757876E-33
   2.310000      3.6775682E-33
   2.320000      3.9793801E-33
   2.330000      4.2771861E-33
   2.340000      4.5660961E-33
   2.350000      4.8417639E-33
   2.360000      5.1002801E-33
   2.370000      5.3374438E-33
   2.380000      5.5478385E-33
   2.390000      5.7262815E-33
   2.400000      5.8671630E-33
   2.410000      5.9650358E-33
   2.420000      6.0150351E-33
   2.430000      6.0119028E-33
   2.440000      5.9511356E-33
   2.450000      5.8251465E-33
   2.460000      5.6266495E-33
   2.470000      5.3516970E-33
   2.480000      4.9939944E-33
   2.490000      4.5487690E-33
   2.500000      4.0111511E-33
   2.510000      3.3753879E-33
   2.520000      2.6361475E-33
   2.530000      1.7882026E-33
   2.540000      8.2731954E-34
   2.550000     -2.5067367E-34
   2.560000     -1.4490852E-33
   2.570000     -2.7700945E-33
   2.580000     -4.2177219E-33
   2.590000     -5.7945796E-33
   2.600000     -7.5003064E-33
   2.610000     -9.3345353E-33
   2.620000     -1.1295807E-32
   2.630000     -1.3381566E-32
   2.640000     -1.5587779E-32
   2.650000     -1.7908847E-32
   2.660000     -2.0337555E-32
   2.670000     -2.2864884E-32
   2.680000     -2.5479924E-32
   2.690000     -2.8169835E-32
   2.700000     -3.0919674E-32
   2.710000     -3.3712320E-32
   2.720000     -3.6528343E-32
   2.730000     -3.9346267E-32
   2.740000     -4.2142795E-32
   2.750000     -4.4891236E-32
   2.760000     -4.7562453E-32
   2.770000     -5.0126035E-32
   2.780000     -5.2549082E-32
   2.790000     -5.4796439E-32
   2.800000     -5.6830867E-32
   2.810000     -5.8613199E-32
   2.820000     -6.0102433E-32
   2.830000     -6.1255910E-32
   2.840000     -6.2029544E-32
   2.850000     -6.2377931E-32
   2.860000     -6.2254610E-32
   2.870000     -6.1612355E-32
   2.880000     -6.0403571E-32
   2.890000     -5.8580461E-32
   2.900000     -5.6095255E-32
   2.910000     -5.2900778E-32
   2.920000     -4.8950873E-32
   2.930000     -4.4200736E-32
   2.940000     -3.8607266E-32
   2.950000     -3.2129699E-32
   2.960000     -2.4730080E-32
   2.970000     -1.6373741E-32
   2.980000     -7.0299683E-33
   2.990000      3.3276548E-33
   3.000000      1.4720535E-32
   3.010000      2.7164296E-32
   3.020000      4.0668381E-32
   3.030000      5.5235351E-32
   3.040000      7.0860269E-32
   3.050000      8.7530031E-32
   3.060000      1.0522274E-31
   3.070000      1.2390712E-31
   3.080000      1.4354183E-31
   3.090000      1.6407491E-31
   3.100000      1.8544317E-31
   3.110000      2.0757159E-31
   3.120000      2.3037294E-31
   3.130000      2.5374719E-31
   3.140000      2.7758117E-31
   3.150000      3.0174808E-31
   3.160000      3.2610741E-31
   3.170000      3.5050390E-31
   3.180000      3.7476930E-31
   3.190000      3.9872110E-31
   3.200000      4.2216140E-31
   3.210000      4.4487881E-31
   3.220000      4.6664817E-31
   3.230000      4.8723089E-31
   3.240000      5.0637546E-31
   3.250000      5.2381815E-31
   3.260000      5.3928385E-31
   3.270000      5.5248695E-31
   3.280000      5.6313242E-31
   3.290000      5.7091720E-31
   3.300000      5.7553149E-31
   3.310000      5.7666034E-31
   3.320000      5.7398557E-31
   3.330000      5.6718764E-31
   3.340000      5.5594761E-31
   3.350000      5.3994960E-31
   3.360000      5.1888314E-31
   3.370000      4.9244557E-31
   3.380000      4.6034484E-31
   3.390000      4.2230279E-31
   3.400000      3.7805781E-31
   3.410000      3.2736756E-31
   3.420000      2.7001256E-31
   3.430000      2.0580007E-31
   3.440000      1.3456677E-31
   3.450000      5.6182465E-32
   3.460000     -2.9446339E-32
   3.470000     -1.2237271E-31
   3.480000     -2.2260576E-31
   3.490000     -3.3010693E-31
   3.500000     -4.4478637E-31
   3.510000     -5.6649922E-31
   3.520000     -6.9504211E-31
   3.530000     -8.3014944E-31
   3.540000     -9.7149022E-31
   3.550000     -1.1186646E-30
   3.560000     -1.2712005E-30
   3.570000     -1.4285513E-30
   3.580000     -1.5900923E-30
   3.590000     -1.7551191E-30
   3.600000     -1.9228447E-30
   3.610000     -2.0923976E-30
   3.620000     -2.2628215E-30
   3.630000     -2.4330732E-30
   3.640000     -2.6020222E-30
   3.650000     -2.7684509E-30
   3.660000     -2.9310555E-30
   3.670000     -3.0884466E-30
   3.680000     -3.2391520E-30
   3.690000     -3.3816178E-30
   3.700000     -3.5142124E-30
   3.710000     -3.6352315E-30
   3.720000     -3.7429012E-30
   3.730000     -3.8353857E-30
   3.740000     -3.9107915E-30
   3.750000     -3.9671780E-30
   3.760000     -4.0025620E-30
   3.770000     -4.0149312E-30
   3.780000     -4.0022517E-30
   3.790000     -3.9624786E-30
   3.800000     -3.8935706E-30
   3.810000     -3.7935020E-30
   3.820000     -3.6602758E-30
   3.830000     -3.4919382E-30
   3.840000     -3.2865976E-30
   3.850000     -3.0424365E-30
   3.860000     -2.7577333E-30
   3.870000     -2.4308777E-30
   3.880000     -2.0603920E-30
   3.890000     -1.6449484E-30
   3.900000     -1.1833922E-30
   3.910000     -6.7476192E-31
   3.920000     -1.1831184E-31
   3.930000      4.8646602E-31
   3.940000      1.1398187E-30
   3.950000      1.8417089E-30
   3.960000      2.5917907E-30
   3.970000      3.3893866E-30
   3.980000      4.2334626E-30
   3.990000      5.1226039E-30
   4.000000      6.0549910E-30
   4.010000      7.0283774E-30
   4.020000      8.0400654E-30
   4.030000      9.0868835E-30
   4.040000      1.0165166E-29
   4.050000      1.1270729E-29
   4.060000      1.2398859E-29
   4.070000      1.3544286E-29
   4.080000      1.4701174E-29
   4.090000      1.5863104E-29
   4.100000      1.7023063E-29
   4.110000      1.8173436E-29
   4.120000      1.9306002E-29
   4.130000      2.0411920E-29
   4.140000      2.1481740E-29
   4.150000      2.2505399E-29
   4.160000      2.3472226E-29
   4.170000      2.4370966E-29
   4.180000      2.5189778E-29
   4.190000      2.5916264E-29
   4.200000      2.6537485E-29
   4.210000      2.7039996E-29
   4.220000      2.7409877E-29
   4.230000      2.7632764E-29
   4.240000      2.7693907E-29
   4.250000      2.7578200E-29
   4.260000      2.7270253E-29
   4.270000      2.6754453E-29
   4.280000      2.6015007E-29
   4.290000      2.5036042E-29
   4.300000      2.3801679E-29
   4.310000      2.2296107E-29
   4.320000      2.0503683E-29
   4.330000      1.8409037E-29
   4.340000      1.5997170E-29
   4.350000      1.3253573E-29
   4.360000      1.0164350E-29
   4.370000      6.7163354E-30
   4.380000      2.8972374E-30
   4.390000     -1.3042281E-30
   4.400000     -5.8981826E-30
   4.410000     -1.0893436E-29
   4.420000     -1.6297320E-29
   4.430000     -2.2115535E-29
   4.440000     -2.8351964E-29
   4.450000     -3.5008501E-29
   4.460000     -4.2084879E-29
   4.470000     -4.9578477E-29
   4.480000     -5.7484128E-29
   4.490000     -6.5793950E-29
   4.500000     -7.4497119E-29
   4.510000     -8.3579714E-29
   4.520000     -9.3024505E-29
   4.530000     -1.0281075E-28
   4.540000     -1.1291405E-28
   4.550000     -1.2330608E-28
   4.560000     -1.3395449E-28
   4.570000     -1.4482267E-28
   4.580000     -1.5586960E-28
   4.590000     -1.6704972E-28
   4.600000     -1.7831268E-28
   4.610000     -1.8960325E-28
   4.620000     -2.0086123E-28
   4.630000     -2.1202122E-28
   4.640000     -2.2301258E-28
   4.650000     -2.3375936E-28
   4.660000     -2.4418014E-28
   4.670000     -2.5418809E-28
   4.680000     -2.6369077E-28
   4.690000     -2.7259030E-28
   4.700000     -2.8078323E-28
   4.710000     -2.8816072E-28
   4.720000     -2.9460842E-28
   4.730000     -3.0000671E-28
   4.740000     -3.0423087E-28
   4.750000     -3.0715111E-28
   4.760000     -3.0863283E-28
   4.770000     -3.0853694E-28
   4.780000     -3.0672006E-28
   4.790000     -3.0303489E-28
   4.800000     -2.9733058E-28
   4.810000     -2.8945312E-28
   4.820000     -2.7924595E-28
   4.830000     -2.6655029E-28
   4.840000     -2.5120588E-28
   4.850000     -2.3305156E-28
   4.860000     -2.1192594E-28
   4.870000     -1.8766815E-28
   4.880000     -1.6011871E-28
   4.890000     -1.2912030E-28
   4.900000     -9.4518810E-29
   4.910000     -5.6164246E-29
   4.920000     -1.3911841E-29
   4.930000      3.2376914E-29
   4.940000      8.2833073E-29
   4.950000      1.3757900E-28
   4.960000      1.9672698E-28
   4.970000      2.6037790E-28
   4.980000      3.2861991E-28
   4.990000      4.0152688E-28
   5.000000      4.7915693E-28
   5.010000      5.6155071E-28
   5.020000      6.4872991E-28
   5.030000      7.4069537E-28
   5.040000      8.3742564E-28
   5.050000      9.3887486E-28
   5.060000      1.0449713E-27
   5.070000      1.1556149E-27
   5.080000      1.2706763E-27
   5.090000      1.3899940E-27
   5.100000      1.5133731E-27
   5.110000      1.6405832E-27
   5.120000      1.7713562E-27
   5.130000      1.9053847E-27
   5.140000      2.0423195E-27
   5.150000      2.1817687E-27
   5.160000      2.3232951E-27
   5.170000      2.4664148E-27
   5.180000      2.6105948E-27
   5.190000      2.7552521E-27
   5.200000      2.8997518E-27
   5.210000      3.0434057E-27
   5.220000      3.1854700E-27
   5.230000      3.3251462E-27
   5.240000      3.4615783E-27
   5.250000      3.5938511E-27
   5.260000      3.7209918E-27
   5.270000      3.8419675E-27
   5.280000      3.9556856E-27
   5.290000      4.0609932E-27
   5.300000      4.1566787E-27
   5.310000      4.2414694E-27
   5.320000      4.3140342E-27
   5.330000      4.3729849E-27
   5.340000      4.4168757E-27
   5.350000      4.4442055E-27
   5.360000      4.4534206E-27
   5.370000      4.4429162E-27
   5.380000      4.4110398E-27
   5.390000      4.3560942E-27
   5.400000      4.2763402E-27
   5.410000      4.1700027E-27
   5.420000      4.0352727E-27
   5.430000      3.8703138E-27
   5.440000      3.6732696E-27
   5.450000      3.4422658E-27
   5.460000      3.1754207E-27
   5.470000      2.8708507E-27
   5.480000      2.5266781E-27
   5.490000      2.1410403E-27
   5.500000      1.7120991E-27
   5.510000      1.2380497E-27
   5.520000      7.1713171E-28
   5.530000      1.4763991E-28
   5.540000     -4.7206387E-28
   5.550000     -1.1435388E-27
   5.560000     -1.8682503E-27
   5.570000     -2.6475586E-27
   5.580000     -3.4827030E-27
   5.590000     -4.3747868E-27
   5.600000     -5.3247630E-27
   5.610000     -6.3334164E-27
   5.620000     -7.4013488E-27
   5.630000     -8.5289592E-27
   5.640000     -9.7164267E-27
   5.650000     -1.0963694E-26
   5.660000     -1.2270446E-26
   5.670000     -1.3636092E-26
   5.680000     -1.5059741E-26
   5.690000     -1.6540195E-26
   5.700000     -1.8075909E-26
   5.710000     -1.9664991E-26
   5.720000     -2.1305167E-26
   5.730000     -2.2993761E-26
   5.740000     -2.4727683E-26
   5.750000     -2.6503400E-26
   5.760000     -2.8316914E-26
   5.770000     -3.0163758E-26
   5.780000     -3.2038951E-26
   5.790000     -3.3936996E-26
   5.800000     -3.5851858E-26
   5.810000     -3.7776943E-26
   5.820000     -3.9705086E-26
   5.830000     -4.1628520E-26
   5.840000     -4.3538882E-26
   5.850000     -4.5427184E-26
   5.860000     -4.7283805E-26
   5.870000     -4.9098478E-26
   5.880000     -5.0860291E-26
   5.890000     -5.2557661E-26
   5.900000     -5.4178351E-26
   5.910000     -5.5709450E-26
   5.920000     -5.7137380E-26
   5.930000     -5.8447894E-26
   5.940000     -5.9626088E-26
   5.950000     -6.0656415E-26
   5.960000     -6.1522670E-26
   5.970000     -6.2208036E-26
   5.980000     -6.2695078E-26
   5.990000     -6.2965787E-26
   6.000000     -6.3001593E-26
   6.010000     -6.2783406E-26
   6.020000     -6.2291637E-26
   6.030000     -6.1506252E-26
   6.040000     -6.0406808E-26
   6.050000     -5.8972517E-26
   6.060000     -5.7182271E-26
   6.070000     -5.5014734E-26
   6.080000     -5.2448410E-26
   6.090000     -4.9461677E-26
   6.100000     -4.6032906E-26
   6.110000     -4.2140524E-26
   6.120000     -3.7763107E-26
   6.130000     -3.2879482E-26
   6.140000     -2.7468821E-26
   6.150000     -2.1510770E-26
   6.160000     -1.4985530E-26
   6.170000     -7.8740082E-27
   6.180000     -1.5793524E-28
   6.190000      8.1800007E-27
   6.200000      1.7156004E-26
   6.210000      2.6785032E-26
   6.220000      3.7080650E-26
   6.230000      4.8054855E-26
   6.240000      5.9717911E-26
   6.250000      7.2078184E-26
   6.260000      8.5141961E-26
   6.270000      9.8913284E-26
   6.280000      1.1339373E-25
   6.290000      1.2858224E-25
   6.300000      1.4447497E-25
   6.310000      1.6106499E-25
   6.320000      1.7834214E-25
   6.330000      1.9629288E-25
   6.340000      2.1489996E-25
   6.350000      2.3414235E-25
   6.360000      2.5399492E-25
   6.370000      2.7442832E-25
   6.380000      2.9540864E-25
   6.390000      3.1689738E-25
   6.400000      3.3885116E-25
   6.410000      3.6122150E-25
   6.420000      3.8395470E-25
   6.430000      4.0699153E-25
   6.440000      4.3026722E-25
   6.450000      4.5371123E-25
   6.460000      4.7724685E-25
   6.470000      5.0079153E-25
   6.480000      5.2425630E-25
   6.490000      5.4754584E-25
   6.500000      5.7055839E-25
   6.510000      5.9318554E-25
   6.520000      6.1531239E-25
   6.530000      6.3681723E-25
   6.540000      6.5757167E-25
   6.550000      6.7744047E-25
   6.560000      6.9628177E-25
   6.570000      7.1394698E-25
   6.580000      7.3028083E-25
   6.590000      7.4512172E-25
   6.600000      7.5830152E-25
   6.610000      7.6964588E-25
   6.620000      7.7897441E-25
   6.630000      7.8610112E-25
   6.640000      7.9083429E-25
   6.650000      7.9297708E-25
   6.660000      7.9232780E-25
   6.670000      7.8868035E-25
   6.680000      7.8182471E-25
   6.690000      7.7154728E-25
   6.700000      7.5763153E-25
   6.710000      7.3985844E-25
   6.720000      7.1800734E-25
   6.730000      6.9185675E-25
   6.740000      6.6118456E-25
   6.750000      6.2576934E-25
   6.760000      5.8539110E-25
   6.770000      5.3983182E-25
   6.780000      4.8887692E-25
   6.790000      4.3231599E-25
   6.800000      3.6994379E-25
   6.810000      3.0156161E-25
   6.820000      2.2697843E-25
   6.830000      1.4601202E-25
   6.840000      5.8490338E-26
   6.850000     -3.5747183E-26
   6.860000     -1.3684830E-25
   6.870000     -2.4494639E-25
   6.880000     -3.6015901E-25
   6.890000     -4.8258630E-25
   6.900000     -6.1230955E-25
   6.910000     -7.4938951E-25
   6.920000     -8.9386460E-25
   6.930000     -1.0457493E-24
   6.940000     -1.2050328E-24
   6.950000     -1.3716765E-24
   6.960000     -1.5456127E-24
   6.970000     -1.7267428E-24
   6.980000     -1.9149356E-24
   6.990000     -2.1100248E-24
   7.000000     -2.3118086E-24
   7.010000     -2.5200465E-24
   7.020000     -2.7344583E-24
   7.030000     -2.9547223E-24
   7.040000     -3.1804730E-24
   7.050000     -3.4113000E-24
   7.060000     -3.6467454E-24