  -2.600000      0.0000000E+00
  -2.590000      0.0000000E+00
  -2.580000      0.0000000E+00
  -2.570000      0.0000000E+00
  -2.560000      0.0000000E+00
  -2.550000      0.0000000E+00
  -2.540000      0.0000000E+00
  -2.530000      0.0000000E+00
  -2.520000      0.0000000E+00
  -2.510000      0.0000000E+00
  -2.500000      0.0000000E+00
  -2.490000      0.0000000E+00
  -2.480000      0.0000000E+00
  -2.470000      0.0000000E+00
  -2.460000      0.0000000E+00
  -2.450000      0.0000000E+00
  -2.440000      0.0000000E+00
  -2.430000      0.0000000E+00
  -2.420000      0.0000000E+00
  -2.410000      0.0000000E+00
  -2.400000      0.0000000E+00
  -2.390000      0.0000000E+00
  -2.380000      0.0000000E+00
  -2.370000      0.0000000E+00
  -2.360000      0.0000000E+00
  -2.350000      0.0000000E+00
  -2.340000      0.0000000E+00
  -2.330000      0.0000000E+00
  -2.320000      0.0000000E+00
  -2.310000      0.0000000E+00
  -2.300000      0.0000000E+00
  -2.290000      0.0000000E+00
  -2.280000      0.0000000E+00
  -2.270000      0.0000000E+00
  -2.260000      0.0000000E+00
  -2.250000      0.0000000E+00
  -2.240000      0.0000000E+00
  -2.230000      0.0000000E+00
  -2.220000      0.0000000E+00
  -2.210000      0.0000000E+00
  -2.200000      0.0000000E+00
  -2.190000      0.0000000E+00
  -2.180000      0.0000000E+00
  -2.170000      0.0000000E+00
  -2.160000      0.0000000E+00
  -2.150000      0.0000000E+00
  -2.140000      0.0000000E+00
  -2.130000      0.0000000E+00
  -2.120000      0.0000000E+00
  -2.110000      0.0000000E+00
  -2.100000      0.0000000E+00
  -2.090000      0.0000000E+00
  -2.080000      0.0000000E+00
  -2.070000      0.0000000E+00
  -2.060000      0.0000000E+00
  -2.050000      0.0000000E+00
  -2.040000      0.0000000E+00
  -2.030000      0.0000000E+00
  -2.020000      0.0000000E+00
  -2.010000      0.0000000E+00
  -2.000000      0.0000000E+00
  -1.990000      0.0000000E+00
  -1.980000      0.0000000E+00
  -1.970000      0.0000000E+00
  -1.960000      0.0000000E+00
  -1.950000      0.0000000E+00
  -1.940000      0.0000000E+00
  -1.930000      0.0000000E+00
  -1.920000      0.0000000E+00
  -1.910000      0.0000000E+00
  -1.900000      0.0000000E+00
  -1.890000      0.0000000E+00
  -1.880000      0.0000000E+00
  -1.870000      0.0000000E+00
  -1.860000      0.0000000E+00
  -1.850000      0.0000000E+00
  -1.840000      0.0000000E+00
  -1.830000      0.0000000E+00
  -1.820000      0.0000000E+00
  -1.810000      0.0000000E+00
  -1.800000      0.0000000E+00
  -1.790000      0.0000000E+00
  -1.780000      0.0000000E+00
  -1.770000      0.0000000E+00
  -1.760000      0.0000000E+00
  -1.750000      0.0000000E+00
  -1.740000      0.0000000E+00
  -1.730000      0.0000000E+00
  -1.720000      0.0000000E+00
  -1.710000      0.0000000E+00
  -1.700000      0.0000000E+00
  -1.690000      0.0000000E+00
  -1.680000      0.0000000E+00
  -1.670000      0.0000000E+00
  -1.660000      0.0000000E+00
  -1.650000      0.0000000E+00
  -1.640000      0.0000000E+00
  -1.630000      0.0000000E+00
  -1.620000      0.0000000E+00
  -1.610000      0.0000000E+00
  -1.600000      0.0000000E+00
  -1.590000      0.0000000E+00
  -1.580000      0.0000000E+00
  -1.570000      0.0000000E+00
  -1.560000      0.0000000E+00
  -1.550000      0.0000000E+00
  -1.540000      0.0000000E+00
  -1.530000      0.0000000E+00
  -1.520000      0.0000000E+00
  -1.510000      0.0000000E+00
  -1.500000      0.0000000E+00
  -1.490000      0.0000000E+00
  -1.480000      0.0000000E+00
  -1.470000      0.0000000E+00
  -1.460000      0.0000000E+00
  -1.450000      0.0000000E+00
  -1.440000      0.0000000E+00
  -1.430000      0.0000000E+00
  -1.420000      0.0000000E+00
  -1.410000      0.0000000E+00
  -1.400000      0.0000000E+00
  -1.390000      0.0000000E+00
  -1.380000      0.0000000E+00
  -1.370000      0.0000000E+00
  -1.360000      0.0000000E+00
  -1.350000      0.0000000E+00
  -1.340000      0.0000000E+00
  -1.330000      0.0000000E+00
  -1.320000      0.0000000E+00
  -1.310000      0.0000000E+00
  -1.300000      0.0000000E+00
  -1.290000      0.0000000E+00
  -1.280000      0.0000000E+00
  -1.270000      0.0000000E+00
  -1.260000      0.0000000E+00
  -1.250000      0.0000000E+00
  -1.240000      0.0000000E+00
  -1.230000      0.0000000E+00
  -1.220000      0.0000000E+00
  -1.210000      0.0000000E+00
  -1.200000      0.0000000E+00
  -1.190000      0.0000000E+00
  -1.180000      0.0000000E+00
  -1.170000      0.0000000E+00
  -1.160000      0.0000000E+00
  -1.150000      0.0000000E+00
  -1.140000      0.0000000E+00
  -1.130000      0.0000000E+00
  -1.120000      0.0000000E+00
  -1.110000      0.0000000E+00
  -1.100000      0.0000000E+00
  -1.090000      0.0000000E+00
  -1.080000      0.0000000E+00
  -1.070000      0.0000000E+00
  -1.060000      0.0000000E+00
  -1.050000      0.0000000E+00
  -1.040000      0.0000000E+00
  -1.030000      0.0000000E+00
  -1.020000      0.0000000E+00
  -1.010000      0.0000000E+00
  -1.000000      0.0000000E+00
 -0.9900000      0.0000000E+00
 -0.9800000      0.0000000E+00
 -0.9700000      0.0000000E+00
 -0.9600000      0.0000000E+00
 -0.9500000      0.0000000E+00
 -0.9400000      0.0000000E+00
 -0.9300000      0.0000000E+00
 -0.9200000      0.0000000E+00
 -0.9100000      0.0000000E+00
 -0.9000000      0.0000000E+00
 -0.8900000      0.0000000E+00
 -0.8800000      0.0000000E+00
 -0.8700000      0.0000000E+00
 -0.8600000      0.0000000E+00
 -0.8500000      0.0000000E+00
 -0.8400000      0.0000000E+00
 -0.8300000      0.0000000E+00
 -0.8200000      0.0000000E+00
 -0.8100000      0.0000000E+00
 -0.8000000      0.0000000E+00
 -0.7900000      0.0000000E+00
 -0.7800000      0.0000000E+00
 -0.7700000      0.0000000E+00
 -0.7600000      0.0000000E+00
 -0.7500000      0.0000000E+00
 -0.7400000      0.0000000E+00
 -0.7300000      0.0000000E+00
 -0.7200000      0.0000000E+00
 -0.7100000      0.0000000E+00
 -0.7000000      0.0000000E+00
 -0.6900000      0.0000000E+00
 -0.6800000      0.0000000E+00
 -0.6700000      0.0000000E+00
 -0.6600000      0.0000000E+00
 -0.6500000      0.0000000E+00
 -0.6400000      0.0000000E+00
 -0.6300000      0.0000000E+00
 -0.6200000      0.0000000E+00
 -0.6100000      0.0000000E+00
 -0.6000000      0.0000000E+00
 -0.5900000      0.0000000E+00
 -0.5800000      0.0000000E+00
 -0.5700000      0.0000000E+00
 -0.5600000      0.0000000E+00
 -0.5500000      0.0000000E+00
 -0.5400000      0.0000000E+00
 -0.5300000      0.0000000E+00
 -0.5200000      0.0000000E+00
 -0.5100000      0.0000000E+00
 -0.5000000      0.0000000E+00
 -0.4900000      0.0000000E+00
 -0.4800000      0.0000000E+00
 -0.4700000      0.0000000E+00
 -0.4600000      0.0000000E+00
 -0.4500000      0.0000000E+00
 -0.4400000      0.0000000E+00
 -0.4300000      0.0000000E+00
 -0.4200000      0.0000000E+00
 -0.4100000      0.0000000E+00
 -0.4000000      0.0000000E+00
 -0.3900000      0.0000000E+00
 -0.3800000      0.0000000E+00
 -0.3700000      0.0000000E+00
 -0.3600000      0.0000000E+00
 -0.3500000      0.0000000E+00
 -0.3400000      0.0000000E+00
 -0.3300000      0.0000000E+00
 -0.3200000      0.0000000E+00
 -0.3100000      0.0000000E+00
 -0.3000000      0.0000000E+00
 -0.2900000      0.0000000E+00
 -0.2800000      0.0000000E+00
 -0.2700000      0.0000000E+00
 -0.2600000      0.0000000E+00
 -0.2500000      0.0000000E+00
 -0.2400000      0.0000000E+00
 -0.2300000      0.0000000E+00
 -0.2200000      0.0000000E+00
 -0.2100000      0.0000000E+00
 -0.2000000      0.0000000E+00
 -0.1900000      0.0000000E+00
 -0.1800000      0.0000000E+00
 -0.1700000      0.0000000E+00
 -0.1600000      0.0000000E+00
 -0.1500000      0.0000000E+00
 -0.1400000      0.0000000E+00
 -0.1300000      0.0000000E+00
 -0.1200000      0.0000000E+00
 -0.1100000      0.0000000E+00
 -0.1000000      0.0000000E+00
 -9.0000004E-02  0.0000000E+00
 -7.9999998E-02  0.0000000E+00
 -7.0000000E-02  0.0000000E+00
 -5.9999999E-02  0.0000000E+00
 -5.0000001E-02  0.0000000E+00
 -3.9999999E-02  0.0000000E+00
 -2.9999999E-02  0.0000000E+00
 -2.0000000E-02  0.0000000E+00
 -9.9999998E-03  0.0000000E+00
 -3.4694470E-17  0.0000000E+00
  9.9999998E-03  0.0000000E+00
  2.0000000E-02  0.0000000E+00
  2.9999999E-02  0.0000000E+00
  3.9999999E-02  0.0000000E+00
  5.0000001E-02  0.0000000E+00
  5.9999999E-02  0.0000000E+00
  7.0000000E-02  0.0000000E+00
  7.9999998E-02  0.0000000E+00
  9.0000004E-02  0.0000000E+00
  0.1000000      0.0000000E+00
  0.1100000      0.0000000E+00
  0.1200000      0.0000000E+00
  0.1300000      0.0000000E+00
  0.1400000      0.0000000E+00
  0.1500000      0.0000000E+00
  0.1600000      0.0000000E+00
  0.1700000      0.0000000E+00
  0.1800000      0.0000000E+00
  0.1900000      0.0000000E+00
  0.2000000      0.0000000E+00
  0.2100000      0.0000000E+00
  0.2200000      0.0000000E+00
  0.2300000      0.0000000E+00
  0.2400000      0.0000000E+00
  0.2500000      0.0000000E+00
  0.2600000      0.0000000E+00
  0.2700000      0.0000000E+00
  0.2800000      0.0000000E+00
  0.2900000      0.0000000E+00
  0.3000000      0.0000000E+00
  0.3100000      0.0000000E+00
  0.3200000      0.0000000E+00
  0.3300000      0.0000000E+00
  0.3400000      0.0000000E+00
  0.3500000      0.0000000E+00
  0.3600000      0.0000000E+00
  0.3700000      0.0000000E+00
  0.3800000      0.0000000E+00
  0.3900000      0.0000000E+00
  0.4000000      0.0000000E+00
  0.4100000      0.0000000E+00
  0.4200000      0.0000000E+00
  0.4300000      0.0000000E+00
  0.4400000      0.0000000E+00
  0.4500000      0.0000000E+00
  0.4600000      0.0000000E+00
  0.4700000      0.0000000E+00
  0.4800000      0.0000000E+00
  0.4900000      0.0000000E+00
  0.5000000      0.0000000E+00
  0.5100000      0.0000000E+00
  0.5200000      0.0000000E+00
  0.5300000      0.0000000E+00
  0.5400000      0.0000000E+00
  0.5500000      0.0000000E+00
  0.5600000      0.0000000E+00
  0.5700000      0.0000000E+00
  0.5800000      0.0000000E+00
  0.5900000      0.0000000E+00
  0.6000000      0.0000000E+00
  0.6100000      0.0000000E+00
  0.6200000      0.0000000E+00
  0.6300000      0.0000000E+00
  0.6400000      0.0000000E+00
  0.6500000      0.0000000E+00
  0.6600000      0.0000000E+00
  0.6700000      0.0000000E+00
  0.6800000      0.0000000E+00
  0.6900000      0.0000000E+00
  0.7000000      0.0000000E+00
  0.7100000      0.0000000E+00
  0.7200000      0.0000000E+00
  0.7300000      0.0000000E+00
  0.7400000      0.0000000E+00
  0.7500000      0.0000000E+00
  0.7600000      0.0000000E+00
  0.7700000      0.0000000E+00
  0.7800000      0.0000000E+00
  0.7900000      0.0000000E+00
  0.8000000      0.0000000E+00
  0.8100000      0.0000000E+00
  0.8200000      0.0000000E+00
  0.8300000      0.0000000E+00
  0.8400000      0.0000000E+00
  0.8500000      0.0000000E+00
  0.8600000      0.0000000E+00
  0.8700000      0.0000000E+00
  0.8800000      0.0000000E+00
  0.8900000      0.0000000E+00
  0.9000000      0.0000000E+00
  0.9100000      0.0000000E+00
  0.9200000      0.0000000E+00
  0.9300000      0.0000000E+00
  0.9400000      0.0000000E+00
  0.9500000      0.0000000E+00
  0.9600000      0.0000000E+00
  0.9700000      0.0000000E+00
  0.9800000      0.0000000E+00
  0.9900000      0.0000000E+00
   1.000000      0.0000000E+00
   1.010000      0.0000000E+00
   1.020000      0.0000000E+00
   1.030000      0.0000000E+00
   1.040000      0.0000000E+00
   1.050000      0.0000000E+00
   1.060000      0.0000000E+00
   1.070000      0.0000000E+00
   1.080000      0.0000000E+00
   1.090000      0.0000000E+00
   1.100000      0.0000000E+00
   1.110000      0.0000000E+00
   1.120000      0.0000000E+00
   1.130000      0.0000000E+00
   1.140000      0.0000000E+00
   1.150000      0.0000000E+00
   1.160000      0.0000000E+00
   1.170000      0.0000000E+00
   1.180000      0.0000000E+00
   1.190000      0.0000000E+00
   1.200000      0.0000000E+00
   1.210000      0.0000000E+00
   1.220000      0.0000000E+00
   1.230000      0.0000000E+00
   1.240000      0.0000000E+00
   1.250000      0.0000000E+00
   1.260000      0.0000000E+00
   1.270000      0.0000000E+00
   1.280000      0.0000000E+00
   1.290000      0.0000000E+00
   1.300000      0.0000000E+00
   1.310000      0.0000000E+00
   1.320000      0.0000000E+00
   1.330000      0.0000000E+00
   1.340000      0.0000000E+00
   1.350000      0.0000000E+00
   1.360000      0.0000000E+00
   1.370000      0.0000000E+00
   1.380000      0.0000000E+00
   1.390000      0.0000000E+00
   1.400000      0.0000000E+00
   1.410000      0.0000000E+00
   1.420000      0.0000000E+00
   1.430000      0.0000000E+00
   1.440000      0.0000000E+00
   1.450000      0.0000000E+00
   1.460000      0.0000000E+00
   1.470000      0.0000000E+00
   1.480000      0.0000000E+00
   1.490000      0.0000000E+00
   1.500000      0.0000000E+00
   1.510000      0.0000000E+00
   1.520000      0.0000000E+00
   1.530000      0.0000000E+00
   1.540000      0.0000000E+00
   1.550000      0.0000000E+00
   1.560000      0.0000000E+00
   1.570000      0.0000000E+00
   1.580000      0.0000000E+00
   1.590000      0.0000000E+00
   1.600000      0.0000000E+00
   1.610000      0.0000000E+00
   1.620000      0.0000000E+00
   1.630000      0.0000000E+00
   1.640000      0.0000000E+00
   1.650000      0.0000000E+00
   1.660000      0.0000000E+00
   1.670000      0.0000000E+00
   1.680000      0.0000000E+00
   1.690000      0.0000000E+00
   1.700000      0.0000000E+00
   1.710000      0.0000000E+00
   1.720000      0.0000000E+00
   1.730000      0.0000000E+00
   1.740000      0.0000000E+00
   1.750000      0.0000000E+00
   1.760000      0.0000000E+00
   1.770000      0.0000000E+00
   1.780000      0.0000000E+00
   1.790000      0.0000000E+00
   1.800000      0.0000000E+00
   1.810000      0.0000000E+00
   1.820000      0.0000000E+00
   1.830000      0.0000000E+00
   1.840000      0.0000000E+00
   1.850000      0.0000000E+00
   1.860000      0.0000000E+00
   1.870000      0.0000000E+00
   1.880000      0.0000000E+00
   1.890000      0.0000000E+00
   1.900000      0.0000000E+00
   1.910000      0.0000000E+00
   1.920000      0.0000000E+00
   1.930000      0.0000000E+00
   1.940000      0.0000000E+00
   1.950000      0.0000000E+00
   1.960000      0.0000000E+00
   1.970000      0.0000000E+00
   1.980000      0.0000000E+00
   1.990000      0.0000000E+00
   2.000000      0.0000000E+00
   2.010000      0.0000000E+00
   2.020000      0.0000000E+00
   2.030000      0.0000000E+00
   2.040000      0.0000000E+00
   2.050000      0.0000000E+00
   2.060000      0.0000000E+00
   2.070000      0.0000000E+00
   2.080000      0.0000000E+00
   2.090000      0.0000000E+00
   2.100000      0.0000000E+00
   2.110000      0.0000000E+00
   2.120000      0.0000000E+00
   2.130000      0.0000000E+00
   2.140000      0.0000000E+00
   2.150000      0.0000000E+00
   2.160000      0.0000000E+00
   2.170000      0.0000000E+00
   2.180000      0.0000000E+00
   2.190000      0.0000000E+00
   2.200000      0.0000000E+00
   2.210000      0.0000000E+00
   2.220000      0.0000000E+00
   2.230000      0.0000000E+00
   2.240000      0.0000000E+00
   2.250000      0.0000000E+00
   2.260000      0.0000000E+00
   2.270000      0.0000000E+00
   2.280000      0.0000000E+00
   2.290000      0.0000000E+00
   2.300000      0.0000000E+00
   2.310000      0.0000000E+00
   2.320000      0.0000000E+00
   2.330000      0.0000000E+00
   2.340000      0.0000000E+00
   2.350000      0.0000000E+00
   2.360000      0.0000000E+00
   2.370000      0.0000000E+00
   2.380000      0.0000000E+00
   2.390000      0.0000000E+00
   2.400000      0.0000000E+00
   2.410000      0.0000000E+00
   2.420000      0.0000000E+00
   2.430000      0.0000000E+00
   2.440000      0.0000000E+00
   2.450000      0.0000000E+00
   2.460000      0.0000000E+00
   2.470000      0.0000000E+00
   2.480000      0.0000000E+00
   2.490000      0.0000000E+00
   2.500000      0.0000000E+00
   2.510000      0.0000000E+00
   2.520000      0.0000000E+00
   2.530000      0.0000000E+00
   2.540000      0.0000000E+00
   2.550000      0.0000000E+00
   2.560000      0.0000000E+00
   2.570000      0.0000000E+00
   2.580000      0.0000000E+00
   2.590000      0.0000000E+00
   2.600000      0.0000000E+00
   2.610000      0.0000000E+00
   2.620000      0.0000000E+00
   2.630000      0.0000000E+00
   2.640000      0.0000000E+00
   2.650000      0.0000000E+00
   2.660000      0.0000000E+00
   2.670000      0.0000000E+00
   2.680000      0.0000000E+00
   2.690000      0.0000000E+00
   2.700000      0.0000000E+00
   2.710000      0.0000000E+00
   2.720000      0.0000000E+00
   2.730000      0.0000000E+00
   2.740000      0.0000000E+00
   2.750000      0.0000000E+00
   2.760000      0.0000000E+00
   2.770000      0.0000000E+00
   2.780000      0.0000000E+00
   2.790000      0.0000000E+00
   2.800000      0.0000000E+00
   2.810000      0.0000000E+00
   2.820000      0.0000000E+00
   2.830000      0.0000000E+00
   2.840000      0.0000000E+00
   2.850000      0.0000000E+00
   2.860000      0.0000000E+00
   2.870000      0.0000000E+00
   2.880000      0.0000000E+00
   2.890000      0.0000000E+00
   2.900000      0.0000000E+00
   2.910000      0.0000000E+00
   2.920000      0.0000000E+00
   2.930000      0.0000000E+00
   2.940000      0.0000000E+00
   2.950000      0.0000000E+00
   2.960000      0.0000000E+00
   2.970000      0.0000000E+00
   2.980000      0.0000000E+00
   2.990000      0.0000000E+00
   3.000000      0.0000000E+00
   3.010000      0.0000000E+00
   3.020000      0.0000000E+00
   3.030000      0.0000000E+00
   3.040000      0.0000000E+00
   3.050000      0.0000000E+00
   3.060000      0.0000000E+00
   3.070000      0.0000000E+00
   3.080000      0.0000000E+00
   3.090000      0.0000000E+00
   3.100000      0.0000000E+00
   3.110000      0.0000000E+00
   3.120000      0.0000000E+00
   3.130000      0.0000000E+00
   3.140000      0.0000000E+00
   3.150000      0.0000000E+00
   3.160000      0.0000000E+00
   3.170000      0.0000000E+00
   3.180000      0.0000000E+00
   3.190000      0.0000000E+00
   3.200000      0.0000000E+00
   3.210000      0.0000000E+00
   3.220000      0.0000000E+00
   3.230000     -1.1850093E-38
   3.240000     -1.3825859E-38
   3.250000     -1.5690985E-38
   3.260000     -1.7462047E-38
   3.270000     -1.9055224E-38
   3.280000     -2.0007012E-38
   3.290000     -2.0363755E-38
   3.300000     -2.1079423E-38
   3.310000     -2.0573905E-38
   3.320000     -1.8282168E-38
   3.330000     -1.6020189E-38
   3.340000     -1.4104173E-38
   3.350000     -1.2787164E-38
   3.360000     -1.1867964E-38
   3.370000     -1.1981686E-38
   3.380000     -1.5355031E-38
   3.390000     -2.1431000E-38
   3.400000     -2.8465571E-38
   3.410000     -3.6187479E-38
   3.420000     -4.2233726E-38
   3.430000     -4.6447027E-38
   3.440000     -5.1345442E-38
   3.450000     -5.6590088E-38
   3.460000     -5.8979638E-38
   3.470000     -5.8126040E-38
   3.480000     -5.5136347E-38
   3.490000     -4.9858188E-38
   3.500000     -4.2679151E-38
   3.510000     -3.4527921E-38
   3.520000     -2.6828823E-38
   3.530000     -2.0473366E-38
   3.540000     -1.5904222E-38
   3.550000     -1.4171706E-38
   3.560000     -1.5059529E-38
   3.570000     -1.5790645E-38
   3.580000     -1.4058873E-38
   3.590000      0.0000000E+00
   3.600000      0.0000000E+00
   3.610000      0.0000000E+00
   3.620000      1.2215063E-38
   3.630000      2.4760025E-38
   3.640000      3.8886669E-38
   3.650000      5.2753254E-38
   3.660000      6.5745550E-38
   3.670000      7.8932783E-38
   3.680000      9.1413139E-38
   3.690000      9.8020615E-38
   3.700000      9.8490027E-38
   3.710000      9.2241962E-38
   3.720000      8.0361648E-38
   3.730000      6.8724391E-38
   3.740000      6.2023269E-38
   3.750000      6.1630295E-38
   3.760000      6.7028326E-38
   3.770000      7.9234723E-38
   3.780000      9.8622254E-38
   3.790000      1.2198282E-37
   3.800000      1.4051893E-37
   3.810000      1.5396533E-37
   3.820000      1.5498550E-37
   3.830000      1.3821933E-37
   3.840000      1.1452825E-37
   3.850000      9.4804388E-38
   3.860000      8.4503460E-38
   3.870000      9.2381033E-38
   3.880000      1.2310566E-37
   3.890000      1.6946955E-37
   3.900000      2.3147374E-37
   3.910000      3.0008163E-37
   3.920000      3.5726979E-37
   3.930000      3.8706841E-37
   3.940000      3.9622573E-37
   3.950000      4.4129776E-37
   3.960000      4.7405035E-37
   3.970000      4.5161554E-37
   3.980000      4.2896692E-37
   3.990000      4.5022433E-37
   4.000000      5.4613928E-37
   4.010000      6.7762229E-37
   4.020000      8.4013390E-37
   4.030000      1.0298035E-36
   4.040000      1.2495557E-36
   4.050000      1.2056048E-36
   4.060000      8.2730796E-37
   4.070000      2.8785269E-37
   4.080000     -3.8874019E-37
   4.090000     -1.1436881E-36
   4.100000     -1.8530565E-36
   4.110000     -2.1815327E-36
   4.120000     -2.1893805E-36
   4.130000     -2.1571670E-36
   4.140000     -2.1434877E-36
   4.150000     -2.1945816E-36
   4.160000     -1.9135924E-36
   4.170000     -1.0442220E-36
   4.180000      7.2380552E-38
   4.190000      1.2474768E-36
   4.200000      2.1025229E-36
   4.210000      2.6966993E-36
   4.220000      3.3335030E-36
   4.230000      3.9613026E-36
   4.240000      4.2812725E-36
   4.250000      4.0342071E-36
   4.260000      3.3815989E-36
   4.270000      2.1569868E-36
   4.280000      4.7525806E-37
   4.290000     -1.1961493E-36
   4.300000     -2.7076460E-36
   4.310000     -3.9370243E-36
   4.320000     -4.7036961E-36
   4.330000     -4.7262729E-36
   4.340000     -4.2499340E-36
   4.350000     -3.7092759E-36
   4.360000     -2.8247965E-36
   4.370000     -1.6616871E-36
   4.380000     -6.0526125E-37
   4.390000      1.8697441E-37
   4.400000      3.7964947E-37
   4.410000      8.8108474E-38
   4.420000     -7.7774119E-37
   4.430000     -2.3375276E-36
   4.440000     -4.1996498E-36
   4.450000     -6.1780056E-36
   4.460000     -8.8828350E-36
   4.470000     -1.2024305E-35
   4.480000     -1.4405157E-35
   4.490000     -1.6364638E-35
   4.500000     -1.7491702E-35
   4.510000     -1.7156621E-35
   4.520000     -1.6092301E-35
   4.530000     -1.4843884E-35
   4.540000     -1.1907807E-35
   4.550000     -7.4943361E-36
   4.560000     -3.4406509E-36
   4.570000     -9.1610055E-38
   4.580000      2.4744048E-36
   4.590000      4.2902236E-36
   4.600000      3.6778308E-36
   4.610000      9.8347790E-37
   4.620000     -1.8802724E-36
   4.630000     -4.5178347E-36
   4.640000     -6.3719313E-36
   4.650000     -7.4166203E-36
   4.660000     -7.9964187E-36
   4.670000     -7.9327057E-36
   4.680000     -6.9183998E-36
   4.690000     -4.1769804E-36
   4.700000      4.6702928E-37
   4.710000      5.8981972E-36
   4.720000      1.1375567E-35
   4.730000      1.7365922E-35
   4.740000      2.5268158E-35
   4.750000      3.3715577E-35
   4.760000      4.1223324E-35
   4.770000      4.6813001E-35
   4.780000      5.0531942E-35
   4.790000      5.2290684E-35
   4.800000      4.7497218E-35
   4.810000      3.7116722E-35
   4.820000      2.4520161E-35
   4.830000      1.4387755E-35
   4.840000      1.0464236E-35
   4.850000      1.4361648E-35
   4.860000      2.6956023E-35
   4.870000      4.6125893E-35
   4.880000      7.0330854E-35
   4.890000      1.0320845E-34
   4.900000      1.4195740E-34
   4.910000      1.7799983E-34
   4.920000      2.0916055E-34
   4.930000      2.1449333E-34
   4.940000      1.9373575E-34
   4.950000      1.6803543E-34
   4.960000      1.4205843E-34
   4.970000      1.1388519E-34
   4.980000      8.5877806E-35
   4.990000      6.2310820E-35
   5.000000      4.0266080E-35
   5.010000      2.9846651E-35
   5.020000      3.3095188E-35
   5.030000      4.1806370E-35
   5.040000      5.1339383E-35
   5.050000      5.4330970E-35
   5.060000      5.3256673E-35
   5.070000      6.6886765E-35
   5.080000      9.3660049E-35
   5.090000      1.1719764E-34
   5.100000      1.1778286E-34
   5.110000      9.5407197E-35
   5.120000      7.2725304E-35
   5.130000      4.4084267E-35
   5.140000     -3.7081281E-37
   5.150000     -5.4687234E-35
   5.160000     -1.1982176E-34
   5.170000     -1.9498712E-34
   5.180000     -2.6798417E-34
   5.190000     -3.4063191E-34
   5.200000     -4.0012542E-34
   5.210000     -4.2745984E-34
   5.220000     -4.2687187E-34
   5.230000     -4.0874946E-34
   5.240000     -3.7551915E-34
   5.250000     -3.3508828E-34
   5.260000     -3.0270222E-34
   5.270000     -2.9177790E-34
   5.280000     -3.1577130E-34
   5.290000     -3.6964242E-34
   5.300000     -4.4492682E-34
   5.310000     -5.4222184E-34
   5.320000     -6.5695688E-34
   5.330000     -7.7662157E-34
   5.340000     -8.9144064E-34
   5.350000     -9.9437574E-34
   5.360000     -1.0772209E-33
   5.370000     -1.1360739E-33
   5.380000     -1.1687693E-33
   5.390000     -1.1738518E-33
   5.400000     -1.1569113E-33
   5.410000     -1.1261446E-33
   5.420000     -1.0898663E-33
   5.430000     -1.0547569E-33
   5.440000     -1.0278074E-33
   5.450000     -1.0137044E-33
   5.460000     -1.0136718E-33
   5.470000     -1.0288329E-33
   5.480000     -1.0557060E-33
   5.490000     -1.0889946E-33
   5.500000     -1.1212520E-33
   5.510000     -1.1459061E-33
   5.520000     -1.1533873E-33
   5.530000     -1.1327518E-33
   5.540000     -1.0782197E-33
   5.550000     -9.8696122E-34
   5.560000     -8.5879514E-34
   5.570000     -6.9037412E-34
   5.580000     -4.9930551E-34
   5.590000     -2.9468691E-34
   5.600000     -7.1138858E-35
   5.610000      1.5913551E-34
   5.620000      3.8728732E-34
   5.630000      6.1033554E-34
   5.640000      8.2521632E-34
   5.650000      1.0263317E-33
   5.660000      1.2294928E-33
   5.670000      1.4403181E-33
   5.680000      1.6587550E-33
   5.690000      1.9000388E-33
   5.700000      2.1700425E-33
   5.710000      2.4782220E-33
   5.720000      2.8263832E-33
   5.730000      3.2117154E-33
   5.740000      3.6344136E-33
   5.750000      4.0891988E-33
   5.760000      4.5687410E-33
   5.770000      5.0636311E-33
   5.780000      5.5632849E-33
   5.790000      6.0594269E-33
   5.800000      6.5458791E-33
   5.810000      7.0174074E-33
   5.820000      7.4711152E-33
   5.830000      7.9072133E-33
   5.840000      8.3284480E-33
   5.850000      8.7391628E-33
   5.860000      9.1443586E-33
   5.870000      9.5487375E-33
   5.880000      9.9558215E-33
   5.890000      1.0366702E-32
   5.900000      1.0779675E-32
   5.910000      1.1189967E-32
   5.920000      1.1589755E-32
   5.930000      1.1968839E-32
   5.940000      1.2315141E-32
   5.950000      1.2615621E-32
   5.960000      1.2857451E-32
   5.970000      1.3029542E-32
   5.980000      1.3121534E-32
   5.990000      1.3125767E-32
   6.000000      1.3038692E-32
   6.010000      1.2858652E-32
   6.020000      1.2586144E-32
   6.030000      1.2222368E-32
   6.040000      1.1769747E-32
   6.050000      1.1230141E-32
   6.060000      1.0602612E-32
   6.070000      9.8841920E-33
   6.080000      9.0692467E-33
   6.090000      8.1493063E-33
   6.100000      7.1132565E-33
   6.110000      5.9482710E-33
   6.120000      4.6406412E-33
   6.130000      3.1768561E-33
   6.140000      1.5444258E-33
   6.150000     -2.6688196E-34
   6.160000     -2.2641816E-33
   6.170000     -4.4518340E-33
   6.180000     -6.8308388E-33
   6.190000     -9.3990324E-33
   6.200000     -1.2152217E-32
   6.210000     -1.5084680E-32
   6.220000     -1.8190295E-32
   6.230000     -2.1463472E-32
   6.240000     -2.4899695E-32
   6.250000     -2.8496067E-32
   6.260000     -3.2251451E-32
   6.270000     -3.6166211E-32
   6.280000     -4.0241650E-32
   6.290000     -4.4479143E-32
   6.300000     -4.8879171E-32
   6.310000     -5.3440218E-32
   6.320000     -5.8157765E-32
   6.330000     -6.3023512E-32
   6.340000     -6.8024877E-32
   6.350000     -7.3144819E-32
   6.360000     -7.8362033E-32
   6.370000     -8.3651452E-32
   6.380000     -8.8985016E-32
   6.390000     -9.4332552E-32
   6.400000     -9.9662702E-32
   6.410000     -1.0494366E-31
   6.420000     -1.1014386E-31
   6.430000     -1.1523219E-31
   6.440000     -1.2017805E-31
   6.450000     -1.2495088E-31
   6.460000     -1.2951956E-31
   6.470000     -1.3385161E-31
   6.480000     -1.3791223E-31
   6.490000     -1.4166334E-31
   6.500000     -1.4506293E-31
   6.510000     -1.4806454E-31
   6.520000     -1.5061706E-31
   6.530000     -1.5266473E-31
   6.540000     -1.5414795E-31
   6.550000     -1.5500380E-31
   6.560000     -1.5516702E-31
   6.570000     -1.5457110E-31
   6.580000     -1.5314927E-31
   6.590000     -1.5083537E-31
   6.600000     -1.4756446E-31
   6.610000     -1.4327310E-31
   6.620000     -1.3789943E-31
   6.630000     -1.3138295E-31
   6.640000     -1.2366406E-31
   6.650000     -1.1468349E-31
   6.660000     -1.0438169E-31
   6.670000     -9.2698385E-32
   6.680000     -7.9572469E-32
   6.690000     -6.4941661E-32
   6.700000     -4.8743084E-32
   6.710000     -3.0914111E-32
   6.720000     -1.1393131E-32
   6.730000      9.8791851E-33
   6.740000      3.2958590E-32
   6.750000      5.7895730E-32
   6.760000      8.4734970E-32
   6.770000      1.1351330E-31
   6.780000      1.4425939E-31
   6.790000      1.7699302E-31
   6.800000      2.1172473E-31
   6.810000      2.4845573E-31
   6.820000      2.8717788E-31
   6.830000      3.2787396E-31
   6.840000      3.7051761E-31
   6.850000      4.1507350E-31
   6.860000      4.6149673E-31
   6.870000      5.0973272E-31
   6.880000      5.5971601E-31
   6.890000      6.1136939E-31
   6.900000      6.6460236E-31
   6.910000      7.1931010E-31
   6.920000      7.7537159E-31
   6.930000      8.3264835E-31
   6.940000      8.9098296E-31
   6.950000      9.5019854E-31
   6.960000      1.0100971E-30
   6.970000      1.0704597E-30
   6.980000      1.1310464E-30
   6.990000      1.1915962E-30
   7.000000      1.2518264E-30
   7.010000      1.3114343E-30
   7.020000      1.3700964E-30
   7.030000      1.4274690E-30
   7.040000      1.4831886E-30
   7.050000      1.5368712E-30
   7.060000      1.5881130E-30