  -2.600000      0.0000000E+00
  -2.590000      0.0000000E+00
  -2.580000      0.0000000E+00
  -2.570000      0.0000000E+00
  -2.560000      0.0000000E+00
  -2.550000      0.0000000E+00
  -2.540000      0.0000000E+00
  -2.530000      0.0000000E+00
  -2.520000      0.0000000E+00
  -2.510000      0.0000000E+00
  -2.500000      0.0000000E+00
  -2.490000      0.0000000E+00
  -2.480000      0.0000000E+00
  -2.470000      0.0000000E+00
  -2.460000      0.0000000E+00
  -2.450000      0.0000000E+00
  -2.440000      0.0000000E+00
  -2.430000      0.0000000E+00
  -2.420000      0.0000000E+00
  -2.410000      0.0000000E+00
  -2.400000      0.0000000E+00
  -2.390000      0.0000000E+00
  -2.380000      0.0000000E+00
  -2.370000      0.0000000E+00
  -2.360000      0.0000000E+00
  -2.350000      0.0000000E+00
  -2.340000      0.0000000E+00
  -2.330000      0.0000000E+00
  -2.320000      0.0000000E+00
  -2.310000      0.0000000E+00
  -2.300000      0.0000000E+00
  -2.290000      0.0000000E+00
  -2.280000      0.0000000E+00
  -2.270000      0.0000000E+00
  -2.260000      0.0000000E+00
  -2.250000      0.0000000E+00
  -2.240000      0.0000000E+00
  -2.230000      0.0000000E+00
  -2.220000      0.0000000E+00
  -2.210000      0.0000000E+00
  -2.200000      0.0000000E+00
  -2.190000      0.0000000E+00
  -2.180000      0.0000000E+00
  -2.170000      0.0000000E+00
  -2.160000      0.0000000E+00
  -2.150000      0.0000000E+00
  -2.140000      0.0000000E+00
  -2.130000      0.0000000E+00
  -2.120000      0.0000000E+00
  -2.110000      0.0000000E+00
  -2.100000      0.0000000E+00
  -2.090000      0.0000000E+00
  -2.080000      0.0000000E+00
  -2.070000      0.0000000E+00
  -2.060000      0.0000000E+00
  -2.050000      0.0000000E+00
  -2.040000      0.0000000E+00
  -2.030000      0.0000000E+00
  -2.020000      0.0000000E+00
  -2.010000      0.0000000E+00
  -2.000000      0.0000000E+00
  -1.990000      0.0000000E+00
  -1.980000      0.0000000E+00
  -1.970000      0.0000000E+00
  -1.960000      0.0000000E+00
  -1.950000      0.0000000E+00
  -1.940000      0.0000000E+00
  -1.930000      0.0000000E+00
  -1.920000      0.0000000E+00
  -1.910000      0.0000000E+00
  -1.900000      0.0000000E+00
  -1.890000      0.0000000E+00
  -1.880000      0.0000000E+00
  -1.870000      0.0000000E+00
  -1.860000      0.0000000E+00
  -1.850000      0.0000000E+00
  -1.840000      0.0000000E+00
  -1.830000      0.0000000E+00
  -1.820000      0.0000000E+00
  -1.810000      0.0000000E+00
  -1.800000      0.0000000E+00
  -1.790000      0.0000000E+00
  -1.780000      0.0000000E+00
  -1.770000      0.0000000E+00
  -1.760000      0.0000000E+00
  -1.750000      0.0000000E+00
  -1.740000      0.0000000E+00
  -1.730000      0.0000000E+00
  -1.720000      0.0000000E+00
  -1.710000      0.0000000E+00
  -1.700000      0.0000000E+00
  -1.690000      0.0000000E+00
  -1.680000      0.0000000E+00
  -1.670000      0.0000000E+00
  -1.660000      0.0000000E+00
  -1.650000      0.0000000E+00
  -1.640000      0.0000000E+00
  -1.630000      0.0000000E+00
  -1.620000      0.0000000E+00
  -1.610000      0.0000000E+00
  -1.600000      0.0000000E+00
  -1.590000      0.0000000E+00
  -1.580000      0.0000000E+00
  -1.570000      0.0000000E+00
  -1.560000      0.0000000E+00
  -1.550000      0.0000000E+00
  -1.540000      0.0000000E+00
  -1.530000      0.0000000E+00
  -1.520000      0.0000000E+00
  -1.510000      0.0000000E+00
  -1.500000      0.0000000E+00
  -1.490000      0.0000000E+00
  -1.480000      0.0000000E+00
  -1.470000      0.0000000E+00
  -1.460000      0.0000000E+00
  -1.450000      0.0000000E+00
  -1.440000      0.0000000E+00
  -1.430000      0.0000000E+00
  -1.420000      0.0000000E+00
  -1.410000      0.0000000E+00
  -1.400000      0.0000000E+00
  -1.390000      0.0000000E+00
  -1.380000      0.0000000E+00
  -1.370000      0.0000000E+00
  -1.360000      0.0000000E+00
  -1.350000      0.0000000E+00
  -1.340000      0.0000000E+00
  -1.330000      0.0000000E+00
  -1.320000      0.0000000E+00
  -1.310000      0.0000000E+00
  -1.300000      0.0000000E+00
  -1.290000      0.0000000E+00
  -1.280000      0.0000000E+00
  -1.270000      0.0000000E+00
  -1.260000      0.0000000E+00
  -1.250000      0.0000000E+00
  -1.240000      0.0000000E+00
  -1.230000      0.0000000E+00
  -1.220000      0.0000000E+00
  -1.210000      0.0000000E+00
  -1.200000      0.0000000E+00
  -1.190000      0.0000000E+00
  -1.180000      0.0000000E+00
  -1.170000      0.0000000E+00
  -1.160000      0.0000000E+00
  -1.150000      0.0000000E+00
  -1.140000      0.0000000E+00
  -1.130000      0.0000000E+00
  -1.120000      0.0000000E+00
  -1.110000      0.0000000E+00
  -1.100000      0.0000000E+00
  -1.090000      0.0000000E+00
  -1.080000      0.0000000E+00
  -1.070000      0.0000000E+00
  -1.060000      0.0000000E+00
  -1.050000      0.0000000E+00
  -1.040000      0.0000000E+00
  -1.030000      0.0000000E+00
  -1.020000      0.0000000E+00
  -1.010000      0.0000000E+00
  -1.000000      0.0000000E+00
 -0.9900000      0.0000000E+00
 -0.9800000      0.0000000E+00
 -0.9700000      0.0000000E+00
 -0.9600000      0.0000000E+00
 -0.9500000      0.0000000E+00
 -0.9400000      0.0000000E+00
 -0.9300000      0.0000000E+00
 -0.9200000      0.0000000E+00
 -0.9100000      0.0000000E+00
 -0.9000000      0.0000000E+00
 -0.8900000      0.0000000E+00
 -0.8800000      0.0000000E+00
 -0.8700000      0.0000000E+00
 -0.8600000      0.0000000E+00
 -0.8500000      0.0000000E+00
 -0.8400000      0.0000000E+00
 -0.8300000      0.0000000E+00
 -0.8200000      0.0000000E+00
 -0.8100000      0.0000000E+00
 -0.8000000      0.0000000E+00
 -0.7900000      0.0000000E+00
 -0.7800000      0.0000000E+00
 -0.7700000      0.0000000E+00
 -0.7600000      0.0000000E+00
 -0.7500000      0.0000000E+00
 -0.7400000      0.0000000E+00
 -0.7300000      0.0000000E+00
 -0.7200000      0.0000000E+00
 -0.7100000      0.0000000E+00
 -0.7000000      0.0000000E+00
 -0.6900000      0.0000000E+00
 -0.6800000      0.0000000E+00
 -0.6700000      0.0000000E+00
 -0.6600000      0.0000000E+00
 -0.6500000      0.0000000E+00
 -0.6400000      0.0000000E+00
 -0.6300000      0.0000000E+00
 -0.6200000      0.0000000E+00
 -0.6100000      0.0000000E+00
 -0.6000000      0.0000000E+00
 -0.5900000      0.0000000E+00
 -0.5800000      0.0000000E+00
 -0.5700000      0.0000000E+00
 -0.5600000      0.0000000E+00
 -0.5500000      0.0000000E+00
 -0.5400000      0.0000000E+00
 -0.5300000      0.0000000E+00
 -0.5200000      0.0000000E+00
 -0.5100000      0.0000000E+00
 -0.5000000      0.0000000E+00
 -0.4900000      0.0000000E+00
 -0.4800000      0.0000000E+00
 -0.4700000      0.0000000E+00
 -0.4600000      0.0000000E+00
 -0.4500000      0.0000000E+00
 -0.4400000      0.0000000E+00
 -0.4300000      0.0000000E+00
 -0.4200000      0.0000000E+00
 -0.4100000      0.0000000E+00
 -0.4000000      0.0000000E+00
 -0.3900000      0.0000000E+00
 -0.3800000      0.0000000E+00
 -0.3700000      0.0000000E+00
 -0.3600000      0.0000000E+00
 -0.3500000      0.0000000E+00
 -0.3400000      0.0000000E+00
 -0.3300000      0.0000000E+00
 -0.3200000      0.0000000E+00
 -0.3100000      0.0000000E+00
 -0.3000000      0.0000000E+00
 -0.2900000      0.0000000E+00
 -0.2800000      0.0000000E+00
 -0.2700000      0.0000000E+00
 -0.2600000      0.0000000E+00
 -0.2500000      0.0000000E+00
 -0.2400000      0.0000000E+00
 -0.2300000      0.0000000E+00
 -0.2200000      0.0000000E+00
 -0.2100000      0.0000000E+00
 -0.2000000      0.0000000E+00
 -0.1900000      0.0000000E+00
 -0.1800000      0.0000000E+00
 -0.1700000      0.0000000E+00
 -0.1600000      0.0000000E+00
 -0.1500000      0.0000000E+00
 -0.1400000      0.0000000E+00
 -0.1300000      0.0000000E+00
 -0.1200000      0.0000000E+00
 -0.1100000      0.0000000E+00
 -0.1000000      0.0000000E+00
 -9.0000004E-02  0.0000000E+00
 -7.9999998E-02  0.0000000E+00
 -7.0000000E-02  0.0000000E+00
 -5.9999999E-02  0.0000000E+00
 -5.0000001E-02  0.0000000E+00
 -3.9999999E-02  0.0000000E+00
 -2.9999999E-02  0.0000000E+00
 -2.0000000E-02  0.0000000E+00
 -9.9999998E-03  0.0000000E+00
 -3.4694470E-17  0.0000000E+00
  9.9999998E-03  0.0000000E+00
  2.0000000E-02  0.0000000E+00
  2.9999999E-02  0.0000000E+00
  3.9999999E-02  0.0000000E+00
  5.0000001E-02  0.0000000E+00
  5.9999999E-02  0.0000000E+00
  7.0000000E-02  0.0000000E+00
  7.9999998E-02  0.0000000E+00
  9.0000004E-02  0.0000000E+00
  0.1000000      0.0000000E+00
  0.1100000      0.0000000E+00
  0.1200000      0.0000000E+00
  0.1300000      0.0000000E+00
  0.1400000      0.0000000E+00
  0.1500000      0.0000000E+00
  0.1600000      0.0000000E+00
  0.1700000      0.0000000E+00
  0.1800000      0.0000000E+00
  0.1900000      0.0000000E+00
  0.2000000      0.0000000E+00
  0.2100000      0.0000000E+00
  0.2200000      0.0000000E+00
  0.2300000      0.0000000E+00
  0.2400000      0.0000000E+00
  0.2500000      0.0000000E+00
  0.2600000      0.0000000E+00
  0.2700000      0.0000000E+00
  0.2800000      0.0000000E+00
  0.2900000      0.0000000E+00
  0.3000000      0.0000000E+00
  0.3100000      0.0000000E+00
  0.3200000      0.0000000E+00
  0.3300000      0.0000000E+00
  0.3400000      0.0000000E+00
  0.3500000      0.0000000E+00
  0.3600000      0.0000000E+00
  0.3700000      0.0000000E+00
  0.3800000      0.0000000E+00
  0.3900000      0.0000000E+00
  0.4000000      0.0000000E+00
  0.4100000      0.0000000E+00
  0.4200000      0.0000000E+00
  0.4300000      0.0000000E+00
  0.4400000      0.0000000E+00
  0.4500000      0.0000000E+00
  0.4600000      0.0000000E+00
  0.4700000      0.0000000E+00
  0.4800000      0.0000000E+00
  0.4900000      0.0000000E+00
  0.5000000      0.0000000E+00
  0.5100000      0.0000000E+00
  0.5200000      0.0000000E+00
  0.5300000      0.0000000E+00
  0.5400000      0.0000000E+00
  0.5500000      0.0000000E+00
  0.5600000      0.0000000E+00
  0.5700000      0.0000000E+00
  0.5800000      0.0000000E+00
  0.5900000      0.0000000E+00
  0.6000000      0.0000000E+00
  0.6100000      0.0000000E+00
  0.6200000      0.0000000E+00
  0.6300000      0.0000000E+00
  0.6400000      0.0000000E+00
  0.6500000      0.0000000E+00
  0.6600000      0.0000000E+00
  0.6700000      0.0000000E+00
  0.6800000      0.0000000E+00
  0.6900000      0.0000000E+00
  0.7000000      0.0000000E+00
  0.7100000      0.0000000E+00
  0.7200000      0.0000000E+00
  0.7300000      0.0000000E+00
  0.7400000      0.0000000E+00
  0.7500000      0.0000000E+00
  0.7600000      0.0000000E+00
  0.7700000      0.0000000E+00
  0.7800000      0.0000000E+00
  0.7900000      0.0000000E+00
  0.8000000      0.0000000E+00
  0.8100000      0.0000000E+00
  0.8200000      0.0000000E+00
  0.8300000      0.0000000E+00
  0.8400000      0.0000000E+00
  0.8500000      0.0000000E+00
  0.8600000      0.0000000E+00
  0.8700000      0.0000000E+00
  0.8800000      0.0000000E+00
  0.8900000      0.0000000E+00
  0.9000000      0.0000000E+00
  0.9100000      0.0000000E+00
  0.9200000      0.0000000E+00
  0.9300000      0.0000000E+00
  0.9400000      0.0000000E+00
  0.9500000      0.0000000E+00
  0.9600000      0.0000000E+00
  0.9700000      0.0000000E+00
  0.9800000      0.0000000E+00
  0.9900000      0.0000000E+00
   1.000000      0.0000000E+00
   1.010000      0.0000000E+00
   1.020000      0.0000000E+00
   1.030000      0.0000000E+00
   1.040000      0.0000000E+00
   1.050000      0.0000000E+00
   1.060000      0.0000000E+00
   1.070000      0.0000000E+00
   1.080000      0.0000000E+00
   1.090000      0.0000000E+00
   1.100000      0.0000000E+00
   1.110000      0.0000000E+00
   1.120000      0.0000000E+00
   1.130000      0.0000000E+00
   1.140000      0.0000000E+00
   1.150000      0.0000000E+00
   1.160000      0.0000000E+00
   1.170000      0.0000000E+00
   1.180000      0.0000000E+00
   1.190000      0.0000000E+00
   1.200000      0.0000000E+00
   1.210000      0.0000000E+00
   1.220000      0.0000000E+00
   1.230000      0.0000000E+00
   1.240000      0.0000000E+00
   1.250000      0.0000000E+00
   1.260000      0.0000000E+00
   1.270000      0.0000000E+00
   1.280000      0.0000000E+00
   1.290000      0.0000000E+00
   1.300000      0.0000000E+00
   1.310000      0.0000000E+00
   1.320000      0.0000000E+00
   1.330000      0.0000000E+00
   1.340000      0.0000000E+00
   1.350000      0.0000000E+00
   1.360000      0.0000000E+00
   1.370000      0.0000000E+00
   1.380000      0.0000000E+00
   1.390000      0.0000000E+00
   1.400000      0.0000000E+00
   1.410000      0.0000000E+00
   1.420000      0.0000000E+00
   1.430000      0.0000000E+00
   1.440000      0.0000000E+00
   1.450000      0.0000000E+00
   1.460000      0.0000000E+00
   1.470000      0.0000000E+00
   1.480000      0.0000000E+00
   1.490000      0.0000000E+00
   1.500000      0.0000000E+00
   1.510000      0.0000000E+00
   1.520000      0.0000000E+00
   1.530000      0.0000000E+00
   1.540000      0.0000000E+00
   1.550000      0.0000000E+00
   1.560000      0.0000000E+00
   1.570000      0.0000000E+00
   1.580000      0.0000000E+00
   1.590000      0.0000000E+00
   1.600000      0.0000000E+00
   1.610000      0.0000000E+00
   1.620000      0.0000000E+00
   1.630000      0.0000000E+00
   1.640000      0.0000000E+00
   1.650000      0.0000000E+00
   1.660000      0.0000000E+00
   1.670000      0.0000000E+00
   1.680000      0.0000000E+00
   1.690000      0.0000000E+00
   1.700000      0.0000000E+00
   1.710000      0.0000000E+00
   1.720000      0.0000000E+00
   1.730000      0.0000000E+00
   1.740000      0.0000000E+00
   1.750000      0.0000000E+00
   1.760000      0.0000000E+00
   1.770000      0.0000000E+00
   1.780000      0.0000000E+00
   1.790000      0.0000000E+00
   1.800000      0.0000000E+00
   1.810000      0.0000000E+00
   1.820000      0.0000000E+00
   1.830000      0.0000000E+00
   1.840000      0.0000000E+00
   1.850000      0.0000000E+00
   1.860000      0.0000000E+00
   1.870000      0.0000000E+00
   1.880000      0.0000000E+00
   1.890000      0.0000000E+00
   1.900000      0.0000000E+00
   1.910000      0.0000000E+00
   1.920000      0.0000000E+00
   1.930000      0.0000000E+00
   1.940000      0.0000000E+00
   1.950000      0.0000000E+00
   1.960000      0.0000000E+00
   1.970000      0.0000000E+00
   1.980000      0.0000000E+00
   1.990000      0.0000000E+00
   2.000000      0.0000000E+00
   2.010000      0.0000000E+00
   2.020000      0.0000000E+00
   2.030000      0.0000000E+00
   2.040000      0.0000000E+00
   2.050000      0.0000000E+00
   2.060000      0.0000000E+00
   2.070000      0.0000000E+00
   2.080000      0.0000000E+00
   2.090000      0.0000000E+00
   2.100000      0.0000000E+00
   2.110000      0.0000000E+00
   2.120000      0.0000000E+00
   2.130000      0.0000000E+00
   2.140000      0.0000000E+00
   2.150000      0.0000000E+00
   2.160000      0.0000000E+00
   2.170000      0.0000000E+00
   2.180000      0.0000000E+00
   2.190000      0.0000000E+00
   2.200000      0.0000000E+00
   2.210000      0.0000000E+00
   2.220000      0.0000000E+00
   2.230000      0.0000000E+00
   2.240000      0.0000000E+00
   2.250000      0.0000000E+00
   2.260000      0.0000000E+00
   2.270000      0.0000000E+00
   2.280000      0.0000000E+00
   2.290000      0.0000000E+00
   2.300000      0.0000000E+00
   2.310000      0.0000000E+00
   2.320000      0.0000000E+00
   2.330000      0.0000000E+00
   2.340000      0.0000000E+00
   2.350000      0.0000000E+00
   2.360000      0.0000000E+00
   2.370000      0.0000000E+00
   2.380000      0.0000000E+00
   2.390000      0.0000000E+00
   2.400000      0.0000000E+00
   2.410000      0.0000000E+00
   2.420000      0.0000000E+00
   2.430000      0.0000000E+00
   2.440000      0.0000000E+00
   2.450000      0.0000000E+00
   2.460000      0.0000000E+00
   2.470000      0.0000000E+00
   2.480000      0.0000000E+00
   2.490000      0.0000000E+00
   2.500000      0.0000000E+00
   2.510000      0.0000000E+00
   2.520000      0.0000000E+00
   2.530000      0.0000000E+00
   2.540000      0.0000000E+00
   2.550000      0.0000000E+00
   2.560000      0.0000000E+00
   2.570000      0.0000000E+00
   2.580000      0.0000000E+00
   2.590000      0.0000000E+00
   2.600000      0.0000000E+00
   2.610000      0.0000000E+00
   2.620000      0.0000000E+00
   2.630000      0.0000000E+00
   2.640000      0.0000000E+00
   2.650000      0.0000000E+00
   2.660000      0.0000000E+00
   2.670000      0.0000000E+00
   2.680000      0.0000000E+00
   2.690000      0.0000000E+00
   2.700000      0.0000000E+00
   2.710000      0.0000000E+00
   2.720000      0.0000000E+00
   2.730000      0.0000000E+00
   2.740000      0.0000000E+00
   2.750000      0.0000000E+00
   2.760000      0.0000000E+00
   2.770000      0.0000000E+00
   2.780000      0.0000000E+00
   2.790000      0.0000000E+00
   2.800000      0.0000000E+00
   2.810000      0.0000000E+00
   2.820000      0.0000000E+00
   2.830000      0.0000000E+00
   2.840000      0.0000000E+00
   2.850000      0.0000000E+00
   2.860000      0.0000000E+00
   2.870000      0.0000000E+00
   2.880000      0.0000000E+00
   2.890000      0.0000000E+00
   2.900000      0.0000000E+00
   2.910000      0.0000000E+00
   2.920000      0.0000000E+00
   2.930000      0.0000000E+00
   2.940000      0.0000000E+00
   2.950000      0.0000000E+00
   2.960000      0.0000000E+00
   2.970000      0.0000000E+00
   2.980000      0.0000000E+00
   2.990000      0.0000000E+00
   3.000000      0.0000000E+00
   3.010000      0.0000000E+00
   3.020000      0.0000000E+00
   3.030000      0.0000000E+00
   3.040000      0.0000000E+00
   3.050000      0.0000000E+00
   3.060000      0.0000000E+00
   3.070000      0.0000000E+00
   3.080000      0.0000000E+00
   3.090000      0.0000000E+00
   3.100000      0.0000000E+00
   3.110000      0.0000000E+00
   3.120000      0.0000000E+00
   3.130000      0.0000000E+00
   3.140000      0.0000000E+00
   3.150000      0.0000000E+00
   3.160000      0.0000000E+00
   3.170000      0.0000000E+00
   3.180000      0.0000000E+00
   3.190000      0.0000000E+00
   3.200000      0.0000000E+00
   3.210000      0.0000000E+00
   3.220000      0.0000000E+00
   3.230000      0.0000000E+00
   3.240000      0.0000000E+00
   3.250000      0.0000000E+00
   3.260000      0.0000000E+00
   3.270000      0.0000000E+00
   3.280000      0.0000000E+00
   3.290000      0.0000000E+00
   3.300000      0.0000000E+00
   3.310000      0.0000000E+00
   3.320000      0.0000000E+00
   3.330000      0.0000000E+00
   3.340000      0.0000000E+00
   3.350000      0.0000000E+00
   3.360000      0.0000000E+00
   3.370000      0.0000000E+00
   3.380000      0.0000000E+00
   3.390000      0.0000000E+00
   3.400000      0.0000000E+00
   3.410000      1.4429486E-38
   3.420000      1.6873139E-38
   3.430000      1.8166770E-38
   3.440000      1.9401915E-38
   3.450000      2.1527577E-38
   3.460000      2.3891051E-38
   3.470000      2.6654916E-38
   3.480000      3.0829250E-38
   3.490000      3.6664035E-38
   3.500000      4.2143367E-38
   3.510000      4.7039740E-38
   3.520000      5.2398955E-38
   3.530000      5.8157300E-38
   3.540000      6.4109478E-38
   3.550000      7.0402709E-38
   3.560000      7.6496491E-38
   3.570000      8.1402992E-38
   3.580000      8.4023027E-38
   3.590000      8.4616444E-38
   3.600000      8.4322216E-38
   3.610000      8.2213861E-38
   3.620000      7.7848531E-38
   3.630000      7.1863221E-38
   3.640000      6.4594674E-38
   3.650000      5.6716272E-38
   3.660000      4.8939962E-38
   3.670000      4.1090561E-38
   3.680000      3.2551426E-38
   3.690000      2.3687479E-38
   3.700000      1.5725049E-38
   3.710000      0.0000000E+00
   3.720000      0.0000000E+00
   3.730000     -1.3016572E-38
   3.740000     -2.5467476E-38
   3.750000     -4.1152128E-38
   3.760000     -6.0545673E-38
   3.770000     -8.1085194E-38
   3.780000     -1.0190898E-37
   3.790000     -1.2288886E-37
   3.800000     -1.4472930E-37
   3.810000     -1.6783269E-37
   3.820000     -1.9181077E-37
   3.830000     -2.1854458E-37
   3.840000     -2.4604196E-37
   3.850000     -2.7283597E-37
   3.860000     -2.9583850E-37
   3.870000     -3.1538852E-37
   3.880000     -3.3294497E-37
   3.890000     -3.4753926E-37
   3.900000     -3.6010063E-37
   3.910000     -3.7278790E-37
   3.920000     -3.8080122E-37
   3.930000     -3.8308473E-37
   3.940000     -3.8610737E-37
   3.950000     -3.7018853E-37
   3.960000     -3.3737556E-37
   3.970000     -2.6316056E-37
   3.980000     -1.3548143E-37
   3.990000      0.0000000E+00
   4.000000      1.6619437E-37
   4.010000      3.3726048E-37
   4.020000      5.1397516E-37
   4.030000      7.0451404E-37
   4.040000      9.1170532E-37
   4.050000      1.1433492E-36
   4.060000      1.2980479E-36
   4.070000      1.3507058E-36
   4.080000      1.3705372E-36
   4.090000      1.3423260E-36
   4.100000      1.2804003E-36
   4.110000      1.1472270E-36
   4.120000      9.3872253E-37
   4.130000      7.1826743E-37
   4.140000      4.7523739E-37
   4.150000      2.3250163E-37
   4.160000      0.0000000E+00
   4.170000     -2.1104227E-37
   4.180000     -3.8718244E-37
   4.190000     -4.9639498E-37
   4.200000     -4.8527603E-37
   4.210000     -3.0016031E-37
   4.220000      0.0000000E+00
   4.230000      2.6133869E-37
   4.240000      4.6809409E-37
   4.250000      6.0528202E-37
   4.260000      6.5196104E-37
   4.270000      6.7415980E-37
   4.280000      6.2777638E-37
   4.290000      4.6046457E-37
   4.300000      2.0043297E-37
   4.310000     -1.2765596E-37
   4.320000     -5.1820600E-37
   4.330000     -1.0312976E-36
   4.340000     -1.6720057E-36
   4.350000     -2.4042407E-36
   4.360000     -3.2105019E-36
   4.370000     -4.0788165E-36
   4.380000     -4.9979901E-36
   4.390000     -5.9663728E-36
   4.400000     -6.9835083E-36
   4.410000     -7.9887576E-36
   4.420000     -8.9550378E-36
   4.430000     -9.8735563E-36
   4.440000     -1.0628375E-35
   4.450000     -1.1218226E-35
   4.460000     -1.1713785E-35
   4.470000     -1.2117128E-35
   4.480000     -1.2431590E-35
   4.490000     -1.2490374E-35
   4.500000     -1.2442635E-35
   4.510000     -1.2401727E-35
   4.520000     -1.2172418E-35
   4.530000     -1.1747865E-35
   4.540000     -1.1182069E-35
   4.550000     -1.0567925E-35
   4.560000     -9.9182608E-36
   4.570000     -9.2529729E-36
   4.580000     -8.5612486E-36
   4.590000     -7.8302847E-36
   4.600000     -7.0777846E-36
   4.610000     -6.3532901E-36
   4.620000     -5.6387999E-36
   4.630000     -4.8109424E-36
   4.640000     -3.5616507E-36
   4.650000     -1.5388982E-36
   4.660000      1.0144817E-36
   4.670000      3.8716091E-36
   4.680000      6.8017451E-36
   4.690000      9.8410695E-36
   4.700000      1.3192467E-35
   4.710000      1.6769120E-35
   4.720000      2.0204865E-35
   4.730000      2.3506214E-35
   4.740000      2.7061303E-35
   4.750000      3.0732422E-35
   4.760000      3.4390310E-35
   4.770000      3.7710051E-35
   4.780000      4.1063938E-35
   4.790000      4.4829101E-35
   4.800000      4.8669283E-35
   4.810000      5.2194922E-35
   4.820000      5.5304386E-35
   4.830000      5.8541283E-35
   4.840000      6.1853910E-35
   4.850000      6.4572470E-35
   4.860000      6.6991044E-35
   4.870000      7.0097609E-35
   4.880000      7.5039369E-35
   4.890000      8.1449516E-35
   4.900000      8.7675790E-35
   4.910000      9.3289700E-35
   4.920000      9.9482213E-35
   4.930000      1.0839967E-34
   4.940000      1.1443834E-34
   4.950000      1.1381399E-34
   4.960000      1.1114394E-34
   4.970000      1.0993739E-34
   4.980000      1.0782408E-34
   4.990000      1.0033029E-34
   5.000000      8.8806934E-35
   5.010000      7.5097914E-35
   5.020000      6.0594266E-35
   5.030000      4.8998421E-35
   5.040000      3.9368276E-35
   5.050000      2.6692986E-35
   5.060000      1.2121186E-35
   5.070000     -2.2289727E-36
   5.080000     -1.6557276E-35
   5.090000     -3.0636066E-35
   5.100000     -4.5706790E-35
   5.110000     -6.4950781E-35
   5.120000     -8.7368474E-35
   5.130000     -1.0943241E-34
   5.140000     -1.3111859E-34
   5.150000     -1.5203020E-34
   5.160000     -1.7307450E-34
   5.170000     -1.9564758E-34
   5.180000     -2.1757824E-34
   5.190000     -2.3930528E-34
   5.200000     -2.6488796E-34
   5.210000     -2.9561210E-34
   5.220000     -3.2724895E-34
   5.230000     -3.5742315E-34
   5.240000     -3.8774370E-34
   5.250000     -4.1821811E-34
   5.260000     -4.5272080E-34
   5.270000     -4.9206556E-34
   5.280000     -5.3078143E-34
   5.290000     -5.7069778E-34
   5.300000     -6.1282492E-34
   5.310000     -6.5514929E-34
   5.320000     -6.9608542E-34
   5.330000     -7.3458846E-34
   5.340000     -7.7199719E-34
   5.350000     -8.0847269E-34
   5.360000     -8.4356156E-34
   5.370000     -8.7348313E-34
   5.380000     -8.9702901E-34
   5.390000     -9.1530097E-34
   5.400000     -9.2715547E-34
   5.410000     -9.3210935E-34
   5.420000     -9.3000668E-34
   5.430000     -9.2018561E-34
   5.440000     -9.0197289E-34
   5.450000     -8.7590015E-34
   5.460000     -8.4144641E-34
   5.470000     -7.9691501E-34
   5.480000     -7.4372481E-34
   5.490000     -6.8093385E-34
   5.500000     -6.0604751E-34
   5.510000     -5.2434996E-34
   5.520000     -4.3453604E-34
   5.530000     -3.3145120E-34
   5.540000     -2.1774625E-34
   5.550000     -9.3924455E-35
   5.560000      4.0566373E-35
   5.570000      1.8522877E-34
   5.580000      3.4086110E-34
   5.590000      5.0716125E-34
   5.600000      6.8487088E-34
   5.610000      8.7486332E-34
   5.620000      1.0766242E-33
   5.630000      1.2915847E-33
   5.640000      1.5196981E-33
   5.650000      1.7610224E-33
   5.660000      2.0151351E-33
   5.670000      2.2819912E-33
   5.680000      2.5645316E-33
   5.690000      2.8607246E-33
   5.700000      3.1699372E-33
   5.710000      3.4930428E-33
   5.720000      3.8279224E-33
   5.730000      4.1739277E-33
   5.740000      4.5297517E-33
   5.750000      4.8938082E-33
   5.760000      5.2643269E-33
   5.770000      5.6391076E-33
   5.780000      6.0143221E-33
   5.790000      6.3888581E-33
   5.800000      6.7613642E-33
   5.810000      7.1273124E-33
   5.820000      7.4841044E-33
   5.830000      7.8281877E-33
   5.840000      8.1553161E-33
   5.850000      8.4621333E-33
   5.860000      8.7449308E-33
   5.870000      8.9998536E-33
   5.880000      9.2229044E-33
   5.890000      9.4101144E-33
   5.900000      9.5576301E-33
   5.910000      9.6613264E-33
   5.920000      9.7170602E-33
   5.930000      9.7207762E-33
   5.940000      9.6681090E-33
   5.950000      9.5549720E-33
   5.960000      9.3773570E-33
   5.970000      9.1299632E-33
   5.980000      8.8097490E-33
   5.990000      8.4135736E-33
   6.000000      7.9360401E-33
   6.010000      7.3727968E-33
   6.020000      6.7193975E-33
   6.030000      5.9713221E-33
   6.040000      5.1239982E-33
   6.050000      4.1727621E-33
   6.060000      3.1129541E-33
   6.070000      1.9389994E-33
   6.080000      6.4741830E-34
   6.090000     -7.6516137E-34
   6.100000     -2.3039289E-33
   6.110000     -3.9727441E-33
   6.120000     -5.7751049E-33
   6.130000     -7.7140906E-33
   6.140000     -9.7922426E-33
   6.150000     -1.2011740E-32
   6.160000     -1.4373525E-32
   6.170000     -1.6877758E-32
   6.180000     -1.9524319E-32
   6.190000     -2.2311895E-32
   6.200000     -2.5238163E-32
   6.210000     -2.8299741E-32
   6.220000     -3.1492114E-32
   6.230000     -3.4809597E-32
   6.240000     -3.8245246E-32
   6.250000     -4.1790814E-32
   6.260000     -4.5436724E-32
   6.270000     -4.9172019E-32
   6.280000     -5.2984332E-32
   6.290000     -5.6859873E-32
   6.300000     -6.0783379E-32
   6.310000     -6.4738106E-32
   6.320000     -6.8705447E-32
   6.330000     -7.2666140E-32
   6.340000     -7.6599397E-32
   6.350000     -8.0482131E-32
   6.360000     -8.4290215E-32
   6.370000     -8.7997977E-32
   6.380000     -9.1578116E-32
   6.390000     -9.5001814E-32
   6.400000     -9.8238708E-32
   6.410000     -1.0125686E-31
   6.420000     -1.0402267E-31
   6.430000     -1.0650102E-31
   6.440000     -1.0865515E-31
   6.450000     -1.1044671E-31
   6.460000     -1.1183547E-31
   6.470000     -1.1277994E-31
   6.480000     -1.1323718E-31
   6.490000     -1.1316249E-31
   6.500000     -1.1250994E-31
   6.510000     -1.1123228E-31
   6.520000     -1.0928113E-31
   6.530000     -1.0660708E-31
   6.540000     -1.0315991E-31
   6.550000     -9.8888815E-32
   6.560000     -9.3742477E-32
   6.570000     -8.7669421E-32
   6.580000     -8.0618247E-32
   6.590000     -7.2537881E-32
   6.600000     -6.3377883E-32
   6.610000     -5.3088781E-32
   6.620000     -4.1622421E-32
   6.630000     -2.8932313E-32
   6.640000     -1.4973997E-32
   6.650000      2.9456747E-34
   6.660000      1.6912547E-32
   6.670000      3.4915770E-32
   6.680000      5.4336427E-32
   6.690000      7.5202557E-32
   6.700000      9.7537443E-32
   6.710000      1.2135927E-31
   6.720000      1.4668067E-31
   6.730000      1.7350816E-31
   6.740000      2.0184174E-31
   6.750000      2.3167426E-31
   6.760000      2.6299100E-31
   6.770000      2.9576912E-31
   6.780000      3.2997723E-31
   6.790000      3.6557470E-31
   6.800000      4.0251122E-31
   6.810000      4.4072626E-31
   6.820000      4.8014835E-31
   6.830000      5.2069472E-31
   6.840000      5.6227055E-31
   6.850000      6.0476876E-31
   6.860000      6.4806898E-31
   6.870000      6.9203722E-31
   6.880000      7.3652555E-31
   6.890000      7.8137117E-31
   6.900000      8.2639632E-31
   6.910000      8.7140750E-31
   6.920000      9.1619544E-31
   6.930000      9.6053414E-31
   6.940000      1.0041813E-30
   6.950000      1.0468774E-30
   6.960000      1.0883458E-30
   6.970000      1.1282914E-30
   6.980000      1.1664038E-30
   6.990000      1.2023554E-30
   7.000000      1.2357989E-30
   7.010000      1.2663704E-30
   7.020000      1.2936897E-30
   7.030000      1.3173593E-30
   7.040000      1.3369658E-30
   7.050000      1.3520802E-30
   7.060000      1.3622582E-30