  -2.600000      0.0000000E+00
  -2.590000      0.0000000E+00
  -2.580000      0.0000000E+00
  -2.570000      0.0000000E+00
  -2.560000      0.0000000E+00
  -2.550000      0.0000000E+00
  -2.540000      0.0000000E+00
  -2.530000      0.0000000E+00
  -2.520000      0.0000000E+00
  -2.510000      0.0000000E+00
  -2.500000      0.0000000E+00
  -2.490000      0.0000000E+00
  -2.480000      0.0000000E+00
  -2.470000      0.0000000E+00
  -2.460000      0.0000000E+00
  -2.450000      0.0000000E+00
  -2.440000      0.0000000E+00
  -2.430000      0.0000000E+00
  -2.420000      0.0000000E+00
  -2.410000      0.0000000E+00
  -2.400000      0.0000000E+00
  -2.390000      0.0000000E+00
  -2.380000      0.0000000E+00
  -2.370000      0.0000000E+00
  -2.360000      0.0000000E+00
  -2.350000      0.0000000E+00
  -2.340000      0.0000000E+00
  -2.330000      0.0000000E+00
  -2.320000      0.0000000E+00
  -2.310000      0.0000000E+00
  -2.300000      0.0000000E+00
  -2.290000      0.0000000E+00
  -2.280000      0.0000000E+00
  -2.270000      0.0000000E+00
  -2.260000      0.0000000E+00
  -2.250000      0.0000000E+00
  -2.240000      0.0000000E+00
  -2.230000      0.0000000E+00
  -2.220000      0.0000000E+00
  -2.210000      0.0000000E+00
  -2.200000      0.0000000E+00
  -2.190000      0.0000000E+00
  -2.180000      0.0000000E+00
  -2.170000      0.0000000E+00
  -2.160000      0.0000000E+00
  -2.150000      0.0000000E+00
  -2.140000      0.0000000E+00
  -2.130000      0.0000000E+00
  -2.120000      0.0000000E+00
  -2.110000      0.0000000E+00
  -2.100000      0.0000000E+00
  -2.090000      0.0000000E+00
  -2.080000      0.0000000E+00
  -2.070000      0.0000000E+00
  -2.060000      0.0000000E+00
  -2.050000      0.0000000E+00
  -2.040000      0.0000000E+00
  -2.030000      0.0000000E+00
  -2.020000      0.0000000E+00
  -2.010000      0.0000000E+00
  -2.000000      0.0000000E+00
  -1.990000      0.0000000E+00
  -1.980000      0.0000000E+00
  -1.970000      0.0000000E+00
  -1.960000      0.0000000E+00
  -1.950000      0.0000000E+00
  -1.940000      0.0000000E+00
  -1.930000      0.0000000E+00
  -1.920000      0.0000000E+00
  -1.910000      0.0000000E+00
  -1.900000      0.0000000E+00
  -1.890000      0.0000000E+00
  -1.880000      0.0000000E+00
  -1.870000      0.0000000E+00
  -1.860000      0.0000000E+00
  -1.850000      0.0000000E+00
  -1.840000      0.0000000E+00
  -1.830000      0.0000000E+00
  -1.820000      0.0000000E+00
  -1.810000      0.0000000E+00
  -1.800000      0.0000000E+00
  -1.790000      0.0000000E+00
  -1.780000      0.0000000E+00
  -1.770000      0.0000000E+00
  -1.760000      0.0000000E+00
  -1.750000      0.0000000E+00
  -1.740000      0.0000000E+00
  -1.730000      0.0000000E+00
  -1.720000      0.0000000E+00
  -1.710000      0.0000000E+00
  -1.700000      0.0000000E+00
  -1.690000      0.0000000E+00
  -1.680000      0.0000000E+00
  -1.670000      0.0000000E+00
  -1.660000      0.0000000E+00
  -1.650000      0.0000000E+00
  -1.640000      0.0000000E+00
  -1.630000      0.0000000E+00
  -1.620000      0.0000000E+00
  -1.610000      0.0000000E+00
  -1.600000      0.0000000E+00
  -1.590000      0.0000000E+00
  -1.580000      0.0000000E+00
  -1.570000      0.0000000E+00
  -1.560000      0.0000000E+00
  -1.550000      0.0000000E+00
  -1.540000      0.0000000E+00
  -1.530000      0.0000000E+00
  -1.520000      0.0000000E+00
  -1.510000      0.0000000E+00
  -1.500000      0.0000000E+00
  -1.490000      0.0000000E+00
  -1.480000      0.0000000E+00
  -1.470000      0.0000000E+00
  -1.460000      0.0000000E+00
  -1.450000      0.0000000E+00
  -1.440000      0.0000000E+00
  -1.430000      0.0000000E+00
  -1.420000      0.0000000E+00
  -1.410000      0.0000000E+00
  -1.400000      0.0000000E+00
  -1.390000      0.0000000E+00
  -1.380000      0.0000000E+00
  -1.370000      0.0000000E+00
  -1.360000      0.0000000E+00
  -1.350000      0.0000000E+00
  -1.340000      0.0000000E+00
  -1.330000      0.0000000E+00
  -1.320000      0.0000000E+00
  -1.310000      0.0000000E+00
  -1.300000      0.0000000E+00
  -1.290000      0.0000000E+00
  -1.280000      0.0000000E+00
  -1.270000      0.0000000E+00
  -1.260000      0.0000000E+00
  -1.250000      0.0000000E+00
  -1.240000      0.0000000E+00
  -1.230000      0.0000000E+00
  -1.220000      0.0000000E+00
  -1.210000      0.0000000E+00
  -1.200000      0.0000000E+00
  -1.190000      0.0000000E+00
  -1.180000      0.0000000E+00
  -1.170000      0.0000000E+00
  -1.160000      0.0000000E+00
  -1.150000      0.0000000E+00
  -1.140000      0.0000000E+00
  -1.130000      0.0000000E+00
  -1.120000      0.0000000E+00
  -1.110000      0.0000000E+00
  -1.100000      0.0000000E+00
  -1.090000      0.0000000E+00
  -1.080000      0.0000000E+00
  -1.070000      0.0000000E+00
  -1.060000      0.0000000E+00
  -1.050000      0.0000000E+00
  -1.040000      0.0000000E+00
  -1.030000      0.0000000E+00
  -1.020000      0.0000000E+00
  -1.010000      0.0000000E+00
  -1.000000      0.0000000E+00
 -0.9900000      0.0000000E+00
 -0.9800000      0.0000000E+00
 -0.9700000      0.0000000E+00
 -0.9600000      0.0000000E+00
 -0.9500000      0.0000000E+00
 -0.9400000      0.0000000E+00
 -0.9300000      0.0000000E+00
 -0.9200000      0.0000000E+00
 -0.9100000      0.0000000E+00
 -0.9000000      0.0000000E+00
 -0.8900000      0.0000000E+00
 -0.8800000      0.0000000E+00
 -0.8700000      0.0000000E+00
 -0.8600000      0.0000000E+00
 -0.8500000      0.0000000E+00
 -0.8400000      0.0000000E+00
 -0.8300000      0.0000000E+00
 -0.8200000      0.0000000E+00
 -0.8100000      0.0000000E+00
 -0.8000000      0.0000000E+00
 -0.7900000      0.0000000E+00
 -0.7800000      0.0000000E+00
 -0.7700000      0.0000000E+00
 -0.7600000      0.0000000E+00
 -0.7500000      0.0000000E+00
 -0.7400000      0.0000000E+00
 -0.7300000      0.0000000E+00
 -0.7200000      0.0000000E+00
 -0.7100000      0.0000000E+00
 -0.7000000      0.0000000E+00
 -0.6900000      0.0000000E+00
 -0.6800000      0.0000000E+00
 -0.6700000      0.0000000E+00
 -0.6600000      0.0000000E+00
 -0.6500000      0.0000000E+00
 -0.6400000      0.0000000E+00
 -0.6300000      0.0000000E+00
 -0.6200000      0.0000000E+00
 -0.6100000      0.0000000E+00
 -0.6000000      0.0000000E+00
 -0.5900000      0.0000000E+00
 -0.5800000      0.0000000E+00
 -0.5700000      0.0000000E+00
 -0.5600000      0.0000000E+00
 -0.5500000      0.0000000E+00
 -0.5400000      0.0000000E+00
 -0.5300000      0.0000000E+00
 -0.5200000      0.0000000E+00
 -0.5100000      0.0000000E+00
 -0.5000000      0.0000000E+00
 -0.4900000      0.0000000E+00
 -0.4800000      0.0000000E+00
 -0.4700000      0.0000000E+00
 -0.4600000      0.0000000E+00
 -0.4500000      0.0000000E+00
 -0.4400000      0.0000000E+00
 -0.4300000      0.0000000E+00
 -0.4200000      0.0000000E+00
 -0.4100000      0.0000000E+00
 -0.4000000      0.0000000E+00
 -0.3900000      0.0000000E+00
 -0.3800000      0.0000000E+00
 -0.3700000      0.0000000E+00
 -0.3600000      0.0000000E+00
 -0.3500000      0.0000000E+00
 -0.3400000      0.0000000E+00
 -0.3300000      0.0000000E+00
 -0.3200000      0.0000000E+00
 -0.3100000      0.0000000E+00
 -0.3000000      0.0000000E+00
 -0.2900000      0.0000000E+00
 -0.2800000      0.0000000E+00
 -0.2700000      0.0000000E+00
 -0.2600000      0.0000000E+00
 -0.2500000      0.0000000E+00
 -0.2400000      0.0000000E+00
 -0.2300000      0.0000000E+00
 -0.2200000      0.0000000E+00
 -0.2100000      0.0000000E+00
 -0.2000000      0.0000000E+00
 -0.1900000      0.0000000E+00
 -0.1800000      0.0000000E+00
 -0.1700000      0.0000000E+00
 -0.1600000      0.0000000E+00
 -0.1500000      0.0000000E+00
 -0.1400000      0.0000000E+00
 -0.1300000      0.0000000E+00
 -0.1200000      0.0000000E+00
 -0.1100000      0.0000000E+00
 -0.1000000      0.0000000E+00
 -9.0000004E-02  0.0000000E+00
 -7.9999998E-02  0.0000000E+00
 -7.0000000E-02  0.0000000E+00
 -5.9999999E-02  0.0000000E+00
 -5.0000001E-02  0.0000000E+00
 -3.9999999E-02  0.0000000E+00
 -2.9999999E-02  0.0000000E+00
 -2.0000000E-02  0.0000000E+00
 -9.9999998E-03  0.0000000E+00
 -3.4694470E-17  0.0000000E+00
  9.9999998E-03  0.0000000E+00
  2.0000000E-02  0.0000000E+00
  2.9999999E-02  0.0000000E+00
  3.9999999E-02  0.0000000E+00
  5.0000001E-02  0.0000000E+00
  5.9999999E-02  0.0000000E+00
  7.0000000E-02  0.0000000E+00
  7.9999998E-02  0.0000000E+00
  9.0000004E-02  0.0000000E+00
  0.1000000      0.0000000E+00
  0.1100000      0.0000000E+00
  0.1200000      0.0000000E+00
  0.1300000      0.0000000E+00
  0.1400000      0.0000000E+00
  0.1500000      0.0000000E+00
  0.1600000      0.0000000E+00
  0.1700000      0.0000000E+00
  0.1800000      0.0000000E+00
  0.1900000      0.0000000E+00
  0.2000000      0.0000000E+00
  0.2100000      0.0000000E+00
  0.2200000      0.0000000E+00
  0.2300000      0.0000000E+00
  0.2400000      0.0000000E+00
  0.2500000      0.0000000E+00
  0.2600000      0.0000000E+00
  0.2700000      0.0000000E+00
  0.2800000      0.0000000E+00
  0.2900000      0.0000000E+00
  0.3000000      0.0000000E+00
  0.3100000      0.0000000E+00
  0.3200000      0.0000000E+00
  0.3300000      0.0000000E+00
  0.3400000      0.0000000E+00
  0.3500000      0.0000000E+00
  0.3600000      0.0000000E+00
  0.3700000      0.0000000E+00
  0.3800000      0.0000000E+00
  0.3900000      0.0000000E+00
  0.4000000      0.0000000E+00
  0.4100000      0.0000000E+00
  0.4200000      0.0000000E+00
  0.4300000      0.0000000E+00
  0.4400000      0.0000000E+00
  0.4500000      0.0000000E+00
  0.4600000      0.0000000E+00
  0.4700000      0.0000000E+00
  0.4800000      0.0000000E+00
  0.4900000      0.0000000E+00
  0.5000000      0.0000000E+00
  0.5100000      0.0000000E+00
  0.5200000      0.0000000E+00
  0.5300000      0.0000000E+00
  0.5400000      0.0000000E+00
  0.5500000      0.0000000E+00
  0.5600000      0.0000000E+00
  0.5700000      0.0000000E+00
  0.5800000      0.0000000E+00
  0.5900000      0.0000000E+00
  0.6000000      0.0000000E+00
  0.6100000      0.0000000E+00
  0.6200000      0.0000000E+00
  0.6300000      0.0000000E+00
  0.6400000      0.0000000E+00
  0.6500000      0.0000000E+00
  0.6600000      0.0000000E+00
  0.6700000      0.0000000E+00
  0.6800000      0.0000000E+00
  0.6900000      0.0000000E+00
  0.7000000      0.0000000E+00
  0.7100000      0.0000000E+00
  0.7200000      0.0000000E+00
  0.7300000      0.0000000E+00
  0.7400000      0.0000000E+00
  0.7500000      0.0000000E+00
  0.7600000      0.0000000E+00
  0.7700000      0.0000000E+00
  0.7800000      0.0000000E+00
  0.7900000      0.0000000E+00
  0.8000000      0.0000000E+00
  0.8100000      0.0000000E+00
  0.8200000      0.0000000E+00
  0.8300000      0.0000000E+00
  0.8400000      0.0000000E+00
  0.8500000      0.0000000E+00
  0.8600000      0.0000000E+00
  0.8700000      0.0000000E+00
  0.8800000      0.0000000E+00
  0.8900000      0.0000000E+00
  0.9000000      0.0000000E+00
  0.9100000      0.0000000E+00
  0.9200000      0.0000000E+00
  0.9300000      0.0000000E+00
  0.9400000      0.0000000E+00
  0.9500000      0.0000000E+00
  0.9600000      0.0000000E+00
  0.9700000      0.0000000E+00
  0.9800000      0.0000000E+00
  0.9900000      0.0000000E+00
   1.000000      0.0000000E+00
   1.010000      0.0000000E+00
   1.020000      0.0000000E+00
   1.030000      0.0000000E+00
   1.040000      0.0000000E+00
   1.050000      0.0000000E+00
   1.060000      0.0000000E+00
   1.070000      0.0000000E+00
   1.080000      0.0000000E+00
   1.090000      0.0000000E+00
   1.100000      0.0000000E+00
   1.110000      0.0000000E+00
   1.120000      0.0000000E+00
   1.130000      0.0000000E+00
   1.140000      0.0000000E+00
   1.150000      0.0000000E+00
   1.160000      0.0000000E+00
   1.170000      0.0000000E+00
   1.180000      0.0000000E+00
   1.190000      0.0000000E+00
   1.200000      0.0000000E+00
   1.210000      0.0000000E+00
   1.220000      0.0000000E+00
   1.230000      0.0000000E+00
   1.240000      0.0000000E+00
   1.250000      0.0000000E+00
   1.260000      0.0000000E+00
   1.270000      0.0000000E+00
   1.280000      0.0000000E+00
   1.290000      0.0000000E+00
   1.300000      0.0000000E+00
   1.310000      0.0000000E+00
   1.320000      0.0000000E+00
   1.330000      0.0000000E+00
   1.340000      0.0000000E+00
   1.350000      0.0000000E+00
   1.360000      0.0000000E+00
   1.370000      0.0000000E+00
   1.380000      0.0000000E+00
   1.390000      0.0000000E+00
   1.400000      0.0000000E+00
   1.410000      0.0000000E+00
   1.420000      0.0000000E+00
   1.430000      0.0000000E+00
   1.440000      0.0000000E+00
   1.450000      0.0000000E+00
   1.460000      0.0000000E+00
   1.470000      0.0000000E+00
   1.480000      0.0000000E+00
   1.490000      0.0000000E+00
   1.500000      0.0000000E+00
   1.510000      0.0000000E+00
   1.520000      0.0000000E+00
   1.530000      0.0000000E+00
   1.540000      0.0000000E+00
   1.550000      0.0000000E+00
   1.560000      0.0000000E+00
   1.570000      0.0000000E+00
   1.580000      0.0000000E+00
   1.590000      0.0000000E+00
   1.600000      0.0000000E+00
   1.610000      0.0000000E+00
   1.620000      0.0000000E+00
   1.630000      0.0000000E+00
   1.640000      0.0000000E+00
   1.650000      0.0000000E+00
   1.660000      0.0000000E+00
   1.670000      0.0000000E+00
   1.680000      0.0000000E+00
   1.690000      0.0000000E+00
   1.700000      0.0000000E+00
   1.710000      0.0000000E+00
   1.720000      0.0000000E+00
   1.730000      0.0000000E+00
   1.740000      0.0000000E+00
   1.750000      0.0000000E+00
   1.760000      0.0000000E+00
   1.770000      0.0000000E+00
   1.780000      0.0000000E+00
   1.790000      0.0000000E+00
   1.800000      0.0000000E+00
   1.810000      0.0000000E+00
   1.820000      0.0000000E+00
   1.830000      0.0000000E+00
   1.840000      0.0000000E+00
   1.850000      0.0000000E+00
   1.860000      0.0000000E+00
   1.870000      0.0000000E+00
   1.880000      0.0000000E+00
   1.890000      0.0000000E+00
   1.900000      0.0000000E+00
   1.910000      0.0000000E+00
   1.920000      0.0000000E+00
   1.930000      0.0000000E+00
   1.940000      0.0000000E+00
   1.950000      0.0000000E+00
   1.960000      0.0000000E+00
   1.970000      0.0000000E+00
   1.980000      0.0000000E+00
   1.990000      0.0000000E+00
   2.000000      0.0000000E+00
   2.010000      0.0000000E+00
   2.020000      0.0000000E+00
   2.030000      0.0000000E+00
   2.040000      0.0000000E+00
   2.050000      0.0000000E+00
   2.060000      0.0000000E+00
   2.070000      0.0000000E+00
   2.080000      0.0000000E+00
   2.090000      0.0000000E+00
   2.100000      0.0000000E+00
   2.110000      0.0000000E+00
   2.120000      0.0000000E+00
   2.130000      0.0000000E+00
   2.140000      0.0000000E+00
   2.150000      0.0000000E+00
   2.160000      0.0000000E+00
   2.170000      0.0000000E+00
   2.180000      0.0000000E+00
   2.190000      0.0000000E+00
   2.200000      0.0000000E+00
   2.210000      0.0000000E+00
   2.220000      0.0000000E+00
   2.230000      0.0000000E+00
   2.240000      0.0000000E+00
   2.250000      0.0000000E+00
   2.260000      0.0000000E+00
   2.270000      0.0000000E+00
   2.280000      0.0000000E+00
   2.290000      0.0000000E+00
   2.300000      0.0000000E+00
   2.310000      0.0000000E+00
   2.320000      0.0000000E+00
   2.330000      0.0000000E+00
   2.340000      0.0000000E+00
   2.350000      0.0000000E+00
   2.360000      0.0000000E+00
   2.370000      0.0000000E+00
   2.380000      0.0000000E+00
   2.390000      0.0000000E+00
   2.400000      0.0000000E+00
   2.410000      0.0000000E+00
   2.420000      0.0000000E+00
   2.430000      0.0000000E+00
   2.440000      0.0000000E+00
   2.450000      0.0000000E+00
   2.460000      0.0000000E+00
   2.470000      0.0000000E+00
   2.480000      0.0000000E+00
   2.490000      0.0000000E+00
   2.500000      0.0000000E+00
   2.510000      0.0000000E+00
   2.520000      0.0000000E+00
   2.530000      0.0000000E+00
   2.540000      0.0000000E+00
   2.550000      0.0000000E+00
   2.560000      0.0000000E+00
   2.570000      0.0000000E+00
   2.580000      0.0000000E+00
   2.590000      0.0000000E+00
   2.600000      0.0000000E+00
   2.610000      0.0000000E+00
   2.620000      0.0000000E+00
   2.630000      0.0000000E+00
   2.640000      0.0000000E+00
   2.650000      0.0000000E+00
   2.660000      0.0000000E+00
   2.670000      0.0000000E+00
   2.680000      0.0000000E+00
   2.690000      0.0000000E+00
   2.700000      0.0000000E+00
   2.710000      0.0000000E+00
   2.720000      0.0000000E+00
   2.730000      0.0000000E+00
   2.740000      0.0000000E+00
   2.750000      0.0000000E+00
   2.760000      0.0000000E+00
   2.770000      0.0000000E+00
   2.780000      0.0000000E+00
   2.790000      0.0000000E+00
   2.800000      0.0000000E+00
   2.810000      0.0000000E+00
   2.820000      0.0000000E+00
   2.830000      0.0000000E+00
   2.840000      0.0000000E+00
   2.850000      0.0000000E+00
   2.860000      0.0000000E+00
   2.870000      0.0000000E+00
   2.880000      0.0000000E+00
   2.890000      0.0000000E+00
   2.900000      0.0000000E+00
   2.910000      0.0000000E+00
   2.920000      0.0000000E+00
   2.930000      0.0000000E+00
   2.940000      0.0000000E+00
   2.950000      0.0000000E+00
   2.960000      0.0000000E+00
   2.970000      0.0000000E+00
   2.980000      0.0000000E+00
   2.990000      0.0000000E+00
   3.000000      0.0000000E+00
   3.010000      0.0000000E+00
   3.020000      0.0000000E+00
   3.030000      0.0000000E+00
   3.040000      0.0000000E+00
   3.050000      0.0000000E+00
   3.060000      0.0000000E+00
   3.070000      0.0000000E+00
   3.080000      0.0000000E+00
   3.090000      0.0000000E+00
   3.100000      0.0000000E+00
   3.110000      0.0000000E+00
   3.120000      0.0000000E+00
   3.130000      0.0000000E+00
   3.140000      0.0000000E+00
   3.150000      0.0000000E+00
   3.160000      0.0000000E+00
   3.170000      0.0000000E+00
   3.180000      0.0000000E+00
   3.190000      0.0000000E+00
   3.200000      0.0000000E+00
   3.210000      0.0000000E+00
   3.220000      0.0000000E+00
   3.230000      0.0000000E+00
   3.240000      0.0000000E+00
   3.250000      0.0000000E+00
   3.260000      0.0000000E+00
   3.270000      0.0000000E+00
   3.280000      0.0000000E+00
   3.290000      0.0000000E+00
   3.300000      0.0000000E+00
   3.310000      0.0000000E+00
   3.320000      0.0000000E+00
   3.330000      0.0000000E+00
   3.340000     -1.2414116E-38
   3.350000     -1.6252174E-38
   3.360000     -1.9999511E-38
   3.370000     -2.3132037E-38
   3.380000     -2.5153159E-38
   3.390000     -2.6397997E-38
   3.400000     -2.7497741E-38
   3.410000     -2.9000948E-38
   3.420000     -3.2881003E-38
   3.430000     -3.8235174E-38
   3.440000     -4.3384484E-38
   3.450000     -4.9156917E-38
   3.460000     -5.5306078E-38
   3.470000     -6.1256159E-38
   3.480000     -6.6576486E-38
   3.490000     -7.1378551E-38
   3.500000     -7.5930159E-38
   3.510000     -8.0576865E-38
   3.520000     -8.5286769E-38
   3.530000     -8.9547860E-38
   3.540000     -9.3004353E-38
   3.550000     -9.5473715E-38
   3.560000     -9.7647667E-38
   3.570000     -1.0031098E-37
   3.580000     -1.0379817E-37
   3.590000     -1.0778150E-37
   3.600000     -1.1142704E-37
   3.610000     -1.1471128E-37
   3.620000     -1.1820885E-37
   3.630000     -1.2247363E-37
   3.640000     -1.2677665E-37
   3.650000     -1.3037785E-37
   3.660000     -1.3103418E-37
   3.670000     -1.2933218E-37
   3.680000     -1.2722694E-37
   3.690000     -1.2322576E-37
   3.700000     -1.1723896E-37
   3.710000     -1.0673557E-37
   3.720000     -9.4277982E-38
   3.730000     -8.2158392E-38
   3.740000     -6.8934215E-38
   3.750000     -5.6323891E-38
   3.760000     -4.4811905E-38
   3.770000     -3.4893545E-38
   3.780000     -2.8212000E-38
   3.790000     -1.9748076E-38
   3.800000      0.0000000E+00
   3.810000      1.5570920E-38
   3.820000      3.9980306E-38
   3.830000      7.2461547E-38
   3.840000      1.1072478E-37
   3.850000      1.5211324E-37
   3.860000      1.9552064E-37
   3.870000      2.3609128E-37
   3.880000      2.7871004E-37
   3.890000      3.1369483E-37
   3.900000      3.3525738E-37
   3.910000      3.5617603E-37
   3.920000      3.8341217E-37
   3.930000      4.2670901E-37
   3.940000      4.8284781E-37
   3.950000      5.4269500E-37
   3.960000      6.0399605E-37
   3.970000      6.5557199E-37
   3.980000      6.9361234E-37
   3.990000      7.2376039E-37
   4.000000      7.3219881E-37
   4.010000      7.3726474E-37
   4.020000      7.4643658E-37
   4.030000      7.3733608E-37
   4.040000      7.1042366E-37
   4.050000      6.6763101E-37
   4.060000      5.9311175E-37
   4.070000      5.0440938E-37
   4.080000      4.2316084E-37
   4.090000      3.5592631E-37
   4.100000      2.7701005E-37
   4.110000      1.6506419E-37
   4.120000      3.9554572E-38
   4.130000     -7.0905859E-38
   4.140000     -1.7681041E-37
   4.150000     -3.1500748E-37
   4.160000     -3.0108025E-37
   4.170000     -1.1923802E-37
   4.180000      6.8431968E-38
   4.190000      2.9773983E-37
   4.200000      4.5683621E-37
   4.210000      5.1497207E-37
   4.220000      5.8968720E-37
   4.230000      5.4672581E-37
   4.240000      3.6416577E-37
   4.250000      1.6050959E-37
   4.260000     -6.1646152E-38
   4.270000     -2.8570655E-37
   4.280000     -5.3929687E-37
   4.290000     -9.2948741E-37
   4.300000     -1.4394661E-36
   4.310000     -2.0347478E-36
   4.320000     -2.7255538E-36
   4.330000     -3.4644421E-36
   4.340000     -4.1772548E-36
   4.350000     -4.8200944E-36
   4.360000     -5.5474415E-36
   4.370000     -6.3771394E-36
   4.380000     -7.1983912E-36
   4.390000     -7.9834426E-36
   4.400000     -8.6618695E-36
   4.410000     -9.2332484E-36
   4.420000     -9.5663329E-36
   4.430000     -9.7007678E-36
   4.440000     -9.8633956E-36
   4.450000     -1.0222283E-35
   4.460000     -1.0682984E-35
   4.470000     -1.1027621E-35
   4.480000     -1.1406251E-35
   4.490000     -1.1848121E-35
   4.500000     -1.2640426E-35
   4.510000     -1.3735845E-35
   4.520000     -1.4729894E-35
   4.530000     -1.5915851E-35
   4.540000     -1.7208543E-35
   4.550000     -1.7395649E-35
   4.560000     -1.6695319E-35
   4.570000     -1.5954344E-35
   4.580000     -1.4851566E-35
   4.590000     -1.3310291E-35
   4.600000     -1.1553319E-35
   4.610000     -9.6322973E-36
   4.620000     -7.4646295E-36
   4.630000     -5.2488284E-36
   4.640000     -2.9554589E-36
   4.650000     -5.6535165E-37
   4.660000      1.8366378E-36
   4.670000      4.2687008E-36
   4.680000      6.6516830E-36
   4.690000      9.0473597E-36
   4.700000      1.1578522E-35
   4.710000      1.4083608E-35
   4.720000      1.6895496E-35
   4.730000      2.0769712E-35
   4.740000      2.5403756E-35
   4.750000      2.9901666E-35
   4.760000      3.4440154E-35
   4.770000      3.9247773E-35
   4.780000      4.3597289E-35
   4.790000      4.6976433E-35
   4.800000      4.8417367E-35
   4.810000      4.9218069E-35
   4.820000      4.9010412E-35
   4.830000      4.8782355E-35
   4.840000      4.8378595E-35
   4.850000      4.6806331E-35
   4.860000      4.5030333E-35
   4.870000      4.6223839E-35
   4.880000      5.3302206E-35
   4.890000      6.2214273E-35
   4.900000      7.1898360E-35
   4.910000      8.4976957E-35
   4.920000      1.0274861E-34
   4.930000      1.2126610E-34
   4.940000      1.3682573E-34
   4.950000      1.5131146E-34
   4.960000      1.6625338E-34
   4.970000      1.8069765E-34
   4.980000      1.9502464E-34
   4.990000      2.0693618E-34
   5.000000      2.1743089E-34
   5.010000      2.2887516E-34
   5.020000      2.3866764E-34
   5.030000      2.4752867E-34
   5.040000      2.5423146E-34
   5.050000      2.5478046E-34
   5.060000      2.4802143E-34
   5.070000      2.3568602E-34
   5.080000      2.1957022E-34
   5.090000      1.9924317E-34
   5.100000      1.7216730E-34
   5.110000      1.4093149E-34
   5.120000      1.0723189E-34
   5.130000      6.6945345E-35
   5.140000      2.4162665E-35
   5.150000     -1.4851787E-35
   5.160000     -5.2312977E-35
   5.170000     -8.9438228E-35
   5.180000     -1.2081369E-34
   5.190000     -1.4489006E-34
   5.200000     -1.6746276E-34
   5.210000     -1.9345276E-34
   5.220000     -2.2095297E-34
   5.230000     -2.4900350E-34
   5.240000     -2.8008205E-34
   5.250000     -3.1555806E-34
   5.260000     -3.5363818E-34
   5.270000     -3.9373293E-34
   5.280000     -4.3718563E-34
   5.290000     -4.8474839E-34
   5.300000     -5.3731535E-34
   5.310000     -5.9578976E-34
   5.320000     -6.6071048E-34
   5.330000     -7.3044305E-34
   5.340000     -8.0442311E-34
   5.350000     -8.8378597E-34
   5.360000     -9.6848897E-34
   5.370000     -1.0545770E-33
   5.380000     -1.1415937E-33
   5.390000     -1.2324373E-33
   5.400000     -1.3256795E-33
   5.410000     -1.4187590E-33
   5.420000     -1.5096320E-33
   5.430000     -1.5956443E-33
   5.440000     -1.6786175E-33
   5.450000     -1.7592750E-33
   5.460000     -1.8343510E-33
   5.470000     -1.9001572E-33
   5.480000     -1.9549588E-33
   5.490000     -1.9989790E-33
   5.500000     -2.0314480E-33
   5.510000     -2.0517444E-33
   5.520000     -2.0595956E-33
   5.530000     -2.0546910E-33
   5.540000     -2.0337116E-33
   5.550000     -1.9968786E-33
   5.560000     -1.9464921E-33
   5.570000     -1.8817675E-33
   5.580000     -1.8025394E-33
   5.590000     -1.7082008E-33
   5.600000     -1.6000956E-33
   5.610000     -1.4766696E-33
   5.620000     -1.3353464E-33
   5.630000     -1.1766300E-33
   5.640000     -9.9862864E-34
   5.650000     -8.0175253E-34
   5.660000     -5.8414199E-34
   5.670000     -3.4604873E-34
   5.680000     -8.5992819E-35
   5.690000      2.0066561E-34
   5.700000      5.1340060E-34
   5.710000      8.5357935E-34
   5.720000      1.2227024E-33
   5.730000      1.6215397E-33
   5.740000      2.0515695E-33
   5.750000      2.5149101E-33
   5.760000      3.0106289E-33
   5.770000      3.5379651E-33
   5.780000      4.0980264E-33
   5.790000      4.6904822E-33
   5.800000      5.3144371E-33
   5.810000      5.9687294E-33
   5.820000      6.6520270E-33
   5.830000      7.3624818E-33
   5.840000      8.0983435E-33
   5.850000      8.8558247E-33
   5.860000      9.6320073E-33
   5.870000      1.0424875E-32
   5.880000      1.1230143E-32
   5.890000      1.2043882E-32
   5.900000      1.2862074E-32
   5.910000      1.3680312E-32
   5.920000      1.4492949E-32
   5.930000      1.5295582E-32
   5.940000      1.6085011E-32
   5.950000      1.6854677E-32
   5.960000      1.7598117E-32
   5.970000      1.8310320E-32
   5.980000      1.8985301E-32
   5.990000      1.9616908E-32
   6.000000      2.0198527E-32
   6.010000      2.0723601E-32
   6.020000      2.1185363E-32
   6.030000      2.1576290E-32
   6.040000      2.1888601E-32
   6.050000      2.2114127E-32
   6.060000      2.2244412E-32
   6.070000      2.2270597E-32
   6.080000      2.2183415E-32
   6.090000      2.1973240E-32
   6.100000      2.1630103E-32
   6.110000      2.1143693E-32
   6.120000      2.0503435E-32
   6.130000      1.9698557E-32
   6.140000      1.8718075E-32
   6.150000      1.7551034E-32
   6.160000      1.6186451E-32
   6.170000      1.4613333E-32
   6.180000      1.2820866E-32
   6.190000      1.0796901E-32
   6.200000      8.5328804E-33
   6.210000      6.0206565E-33
   6.220000      3.2494183E-33
   6.230000      2.1062712E-34
   6.240000     -3.1035516E-33
   6.250000     -6.7013655E-33
   6.260000     -1.0587720E-32
   6.270000     -1.4766300E-32
   6.280000     -1.9242146E-32
   6.290000     -2.4018087E-32
   6.300000     -2.9095198E-32
   6.310000     -3.4473929E-32
   6.320000     -4.0153265E-32
   6.330000     -4.6129910E-32
   6.340000     -5.2399295E-32
   6.350000     -5.8955132E-32
   6.360000     -6.5789357E-32
   6.370000     -7.2891976E-32
   6.380000     -8.0251011E-32
   6.390000     -8.7852381E-32
   6.400000     -9.5679786E-32
   6.410000     -1.0371462E-31
   6.420000     -1.1193581E-31
   6.430000     -1.2031972E-31
   6.440000     -1.2884003E-31
   6.450000     -1.3746862E-31
   6.460000     -1.4617233E-31
   6.470000     -1.5491497E-31
   6.480000     -1.6365925E-31
   6.490000     -1.7236359E-31
   6.500000     -1.8098306E-31
   6.510000     -1.8946927E-31
   6.520000     -1.9777032E-31
   6.530000     -2.0583071E-31
   6.540000     -2.1359132E-31
   6.550000     -2.2098951E-31
   6.560000     -2.2795887E-31
   6.570000     -2.3442950E-31
   6.580000     -2.4032789E-31
   6.590000     -2.4557704E-31
   6.600000     -2.5009656E-31
   6.610000     -2.5380277E-31
   6.620000     -2.5660884E-31
   6.630000     -2.5842503E-31
   6.640000     -2.5915879E-31
   6.650000     -2.5871500E-31
   6.660000     -2.5699626E-31
   6.670000     -2.5390311E-31
   6.680000     -2.4933434E-31
   6.690000     -2.4318735E-31
   6.700000     -2.3535851E-31
   6.710000     -2.2574353E-31
   6.720000     -2.1423777E-31
   6.730000     -2.0073684E-31
   6.740000     -1.8513690E-31
   6.750000     -1.6733532E-31
   6.760000     -1.4723108E-31
   6.770000     -1.2472530E-31
   6.780000     -9.9721935E-32
   6.790000     -7.2128410E-32
   6.800000     -4.1856224E-32
   6.810000     -8.8217178E-33
   6.820000      2.7053277E-32
   6.830000      6.5840479E-32
   6.840000      1.0760449E-31
   6.850000      1.5240186E-31
   6.860000      2.0028014E-31
   6.870000      2.5127701E-31
   6.880000      3.0541929E-31
   6.890000      3.6272194E-31
   6.900000      4.2318695E-31
   6.910000      4.8680240E-31
   6.920000      5.5354114E-31
   6.930000      6.2335991E-31
   6.940000      6.9619828E-31
   6.950000      7.7197709E-31
   6.960000      8.5059796E-31
   6.970000      9.3194189E-31
   6.980000      1.0158678E-30
   6.990000      1.1022118E-30
   7.000000      1.1907859E-30
   7.010000      1.2813771E-30
   7.020000      1.3737466E-30
   7.030000      1.4676281E-30
   7.040000      1.5627270E-30
   7.050000      1.6587201E-30
   7.060000      1.7552540E-30