  -2.600000      0.0000000E+00
  -2.590000      0.0000000E+00
  -2.580000      0.0000000E+00
  -2.570000      0.0000000E+00
  -2.560000      0.0000000E+00
  -2.550000      0.0000000E+00
  -2.540000      0.0000000E+00
  -2.530000      0.0000000E+00
  -2.520000      0.0000000E+00
  -2.510000      0.0000000E+00
  -2.500000      0.0000000E+00
  -2.490000      0.0000000E+00
  -2.480000      0.0000000E+00
  -2.470000      0.0000000E+00
  -2.460000      0.0000000E+00
  -2.450000      0.0000000E+00
  -2.440000      0.0000000E+00
  -2.430000      0.0000000E+00
  -2.420000      0.0000000E+00
  -2.410000      0.0000000E+00
  -2.400000      0.0000000E+00
  -2.390000      0.0000000E+00
  -2.380000      0.0000000E+00
  -2.370000      0.0000000E+00
  -2.360000      0.0000000E+00
  -2.350000      0.0000000E+00
  -2.340000      0.0000000E+00
  -2.330000      0.0000000E+00
  -2.320000      0.0000000E+00
  -2.310000      0.0000000E+00
  -2.300000      0.0000000E+00
  -2.290000      0.0000000E+00
  -2.280000      0.0000000E+00
  -2.270000      0.0000000E+00
  -2.260000      0.0000000E+00
  -2.250000      0.0000000E+00
  -2.240000      0.0000000E+00
  -2.230000      0.0000000E+00
  -2.220000      0.0000000E+00
  -2.210000      0.0000000E+00
  -2.200000      0.0000000E+00
  -2.190000      0.0000000E+00
  -2.180000      0.0000000E+00
  -2.170000      0.0000000E+00
  -2.160000      0.0000000E+00
  -2.150000      0.0000000E+00
  -2.140000      0.0000000E+00
  -2.130000      0.0000000E+00
  -2.120000      0.0000000E+00
  -2.110000      0.0000000E+00
  -2.100000      0.0000000E+00
  -2.090000      0.0000000E+00
  -2.080000      0.0000000E+00
  -2.070000      0.0000000E+00
  -2.060000      0.0000000E+00
  -2.050000      0.0000000E+00
  -2.040000      0.0000000E+00
  -2.030000      0.0000000E+00
  -2.020000      0.0000000E+00
  -2.010000      0.0000000E+00
  -2.000000      0.0000000E+00
  -1.990000      0.0000000E+00
  -1.980000      0.0000000E+00
  -1.970000      0.0000000E+00
  -1.960000      0.0000000E+00
  -1.950000      0.0000000E+00
  -1.940000      0.0000000E+00
  -1.930000      0.0000000E+00
  -1.920000      0.0000000E+00
  -1.910000      0.0000000E+00
  -1.900000      0.0000000E+00
  -1.890000      0.0000000E+00
  -1.880000      0.0000000E+00
  -1.870000      0.0000000E+00
  -1.860000      0.0000000E+00
  -1.850000      0.0000000E+00
  -1.840000      0.0000000E+00
  -1.830000      0.0000000E+00
  -1.820000      0.0000000E+00
  -1.810000      0.0000000E+00
  -1.800000      0.0000000E+00
  -1.790000      0.0000000E+00
  -1.780000      0.0000000E+00
  -1.770000      0.0000000E+00
  -1.760000      0.0000000E+00
  -1.750000      0.0000000E+00
  -1.740000      0.0000000E+00
  -1.730000      0.0000000E+00
  -1.720000      0.0000000E+00
  -1.710000      0.0000000E+00
  -1.700000      0.0000000E+00
  -1.690000      0.0000000E+00
  -1.680000      0.0000000E+00
  -1.670000      0.0000000E+00
  -1.660000      0.0000000E+00
  -1.650000      0.0000000E+00
  -1.640000      0.0000000E+00
  -1.630000      0.0000000E+00
  -1.620000      0.0000000E+00
  -1.610000      0.0000000E+00
  -1.600000      0.0000000E+00
  -1.590000      0.0000000E+00
  -1.580000      0.0000000E+00
  -1.570000      0.0000000E+00
  -1.560000      0.0000000E+00
  -1.550000      0.0000000E+00
  -1.540000      0.0000000E+00
  -1.530000      0.0000000E+00
  -1.520000      0.0000000E+00
  -1.510000      0.0000000E+00
  -1.500000      0.0000000E+00
  -1.490000      0.0000000E+00
  -1.480000      0.0000000E+00
  -1.470000      0.0000000E+00
  -1.460000      0.0000000E+00
  -1.450000      0.0000000E+00
  -1.440000      0.0000000E+00
  -1.430000      0.0000000E+00
  -1.420000      0.0000000E+00
  -1.410000      0.0000000E+00
  -1.400000      0.0000000E+00
  -1.390000      0.0000000E+00
  -1.380000      0.0000000E+00
  -1.370000      0.0000000E+00
  -1.360000      0.0000000E+00
  -1.350000      0.0000000E+00
  -1.340000      0.0000000E+00
  -1.330000      0.0000000E+00
  -1.320000      0.0000000E+00
  -1.310000      0.0000000E+00
  -1.300000      0.0000000E+00
  -1.290000      0.0000000E+00
  -1.280000      0.0000000E+00
  -1.270000      0.0000000E+00
  -1.260000      0.0000000E+00
  -1.250000      0.0000000E+00
  -1.240000      0.0000000E+00
  -1.230000      0.0000000E+00
  -1.220000      0.0000000E+00
  -1.210000      0.0000000E+00
  -1.200000      0.0000000E+00
  -1.190000      0.0000000E+00
  -1.180000      0.0000000E+00
  -1.170000      0.0000000E+00
  -1.160000      0.0000000E+00
  -1.150000      0.0000000E+00
  -1.140000      0.0000000E+00
  -1.130000      0.0000000E+00
  -1.120000      0.0000000E+00
  -1.110000      0.0000000E+00
  -1.100000      0.0000000E+00
  -1.090000      0.0000000E+00
  -1.080000      0.0000000E+00
  -1.070000      0.0000000E+00
  -1.060000      0.0000000E+00
  -1.050000      0.0000000E+00
  -1.040000      0.0000000E+00
  -1.030000      0.0000000E+00
  -1.020000      0.0000000E+00
  -1.010000      0.0000000E+00
  -1.000000      0.0000000E+00
 -0.9900000      0.0000000E+00
 -0.9800000      0.0000000E+00
 -0.9700000      0.0000000E+00
 -0.9600000      0.0000000E+00
 -0.9500000      0.0000000E+00
 -0.9400000      0.0000000E+00
 -0.9300000      0.0000000E+00
 -0.9200000      0.0000000E+00
 -0.9100000      0.0000000E+00
 -0.9000000      0.0000000E+00
 -0.8900000      0.0000000E+00
 -0.8800000      0.0000000E+00
 -0.8700000      0.0000000E+00
 -0.8600000      0.0000000E+00
 -0.8500000      0.0000000E+00
 -0.8400000      0.0000000E+00
 -0.8300000      0.0000000E+00
 -0.8200000      0.0000000E+00
 -0.8100000      0.0000000E+00
 -0.8000000      0.0000000E+00
 -0.7900000      0.0000000E+00
 -0.7800000      0.0000000E+00
 -0.7700000      0.0000000E+00
 -0.7600000      0.0000000E+00
 -0.7500000      0.0000000E+00
 -0.7400000      0.0000000E+00
 -0.7300000      0.0000000E+00
 -0.7200000      0.0000000E+00
 -0.7100000      0.0000000E+00
 -0.7000000      0.0000000E+00
 -0.6900000      0.0000000E+00
 -0.6800000      0.0000000E+00
 -0.6700000      0.0000000E+00
 -0.6600000      0.0000000E+00
 -0.6500000      0.0000000E+00
 -0.6400000      0.0000000E+00
 -0.6300000      0.0000000E+00
 -0.6200000      0.0000000E+00
 -0.6100000      0.0000000E+00
 -0.6000000      0.0000000E+00
 -0.5900000      0.0000000E+00
 -0.5800000      0.0000000E+00
 -0.5700000      0.0000000E+00
 -0.5600000      0.0000000E+00
 -0.5500000      0.0000000E+00
 -0.5400000      0.0000000E+00
 -0.5300000      0.0000000E+00
 -0.5200000      0.0000000E+00
 -0.5100000      0.0000000E+00
 -0.5000000      0.0000000E+00
 -0.4900000      0.0000000E+00
 -0.4800000      0.0000000E+00
 -0.4700000      0.0000000E+00
 -0.4600000      0.0000000E+00
 -0.4500000      0.0000000E+00
 -0.4400000      0.0000000E+00
 -0.4300000      0.0000000E+00
 -0.4200000      0.0000000E+00
 -0.4100000      0.0000000E+00
 -0.4000000      0.0000000E+00
 -0.3900000      0.0000000E+00
 -0.3800000      0.0000000E+00
 -0.3700000      0.0000000E+00
 -0.3600000      0.0000000E+00
 -0.3500000      0.0000000E+00
 -0.3400000      0.0000000E+00
 -0.3300000      0.0000000E+00
 -0.3200000      0.0000000E+00
 -0.3100000      0.0000000E+00
 -0.3000000      0.0000000E+00
 -0.2900000      0.0000000E+00
 -0.2800000      0.0000000E+00
 -0.2700000      0.0000000E+00
 -0.2600000      0.0000000E+00
 -0.2500000      0.0000000E+00
 -0.2400000      0.0000000E+00
 -0.2300000      0.0000000E+00
 -0.2200000      0.0000000E+00
 -0.2100000      0.0000000E+00
 -0.2000000      0.0000000E+00
 -0.1900000      0.0000000E+00
 -0.1800000      0.0000000E+00
 -0.1700000      0.0000000E+00
 -0.1600000      0.0000000E+00
 -0.1500000      0.0000000E+00
 -0.1400000      0.0000000E+00
 -0.1300000      0.0000000E+00
 -0.1200000      0.0000000E+00
 -0.1100000      0.0000000E+00
 -0.1000000      0.0000000E+00
 -9.0000004E-02  0.0000000E+00
 -7.9999998E-02  0.0000000E+00
 -7.0000000E-02  0.0000000E+00
 -5.9999999E-02  0.0000000E+00
 -5.0000001E-02  0.0000000E+00
 -3.9999999E-02  0.0000000E+00
 -2.9999999E-02  0.0000000E+00
 -2.0000000E-02  0.0000000E+00
 -9.9999998E-03  0.0000000E+00
 -3.4694470E-17  0.0000000E+00
  9.9999998E-03  0.0000000E+00
  2.0000000E-02  0.0000000E+00
  2.9999999E-02  0.0000000E+00
  3.9999999E-02  0.0000000E+00
  5.0000001E-02  0.0000000E+00
  5.9999999E-02  0.0000000E+00
  7.0000000E-02  0.0000000E+00
  7.9999998E-02  0.0000000E+00
  9.0000004E-02  0.0000000E+00
  0.1000000      0.0000000E+00
  0.1100000      0.0000000E+00
  0.1200000      0.0000000E+00
  0.1300000      0.0000000E+00
  0.1400000      0.0000000E+00
  0.1500000      0.0000000E+00
  0.1600000      0.0000000E+00
  0.1700000      0.0000000E+00
  0.1800000      0.0000000E+00
  0.1900000      0.0000000E+00
  0.2000000      0.0000000E+00
  0.2100000      0.0000000E+00
  0.2200000      0.0000000E+00
  0.2300000      0.0000000E+00
  0.2400000      0.0000000E+00
  0.2500000      0.0000000E+00
  0.2600000      0.0000000E+00
  0.2700000      0.0000000E+00
  0.2800000      0.0000000E+00
  0.2900000      0.0000000E+00
  0.3000000      0.0000000E+00
  0.3100000      0.0000000E+00
  0.3200000      0.0000000E+00
  0.3300000      0.0000000E+00
  0.3400000      0.0000000E+00
  0.3500000      0.0000000E+00
  0.3600000      0.0000000E+00
  0.3700000      0.0000000E+00
  0.3800000      0.0000000E+00
  0.3900000      0.0000000E+00
  0.4000000      0.0000000E+00
  0.4100000      0.0000000E+00
  0.4200000      0.0000000E+00
  0.4300000      0.0000000E+00
  0.4400000      0.0000000E+00
  0.4500000      0.0000000E+00
  0.4600000      0.0000000E+00
  0.4700000      0.0000000E+00
  0.4800000      0.0000000E+00
  0.4900000      0.0000000E+00
  0.5000000      0.0000000E+00
  0.5100000      0.0000000E+00
  0.5200000      0.0000000E+00
  0.5300000      0.0000000E+00
  0.5400000      0.0000000E+00
  0.5500000      0.0000000E+00
  0.5600000      0.0000000E+00
  0.5700000      0.0000000E+00
  0.5800000      0.0000000E+00
  0.5900000      0.0000000E+00
  0.6000000      0.0000000E+00
  0.6100000      0.0000000E+00
  0.6200000      0.0000000E+00
  0.6300000      0.0000000E+00
  0.6400000      0.0000000E+00
  0.6500000      0.0000000E+00
  0.6600000      0.0000000E+00
  0.6700000      0.0000000E+00
  0.6800000      0.0000000E+00
  0.6900000      0.0000000E+00
  0.7000000      0.0000000E+00
  0.7100000      0.0000000E+00
  0.7200000      0.0000000E+00
  0.7300000      0.0000000E+00
  0.7400000      0.0000000E+00
  0.7500000      0.0000000E+00
  0.7600000      0.0000000E+00
  0.7700000      0.0000000E+00
  0.7800000      0.0000000E+00
  0.7900000      0.0000000E+00
  0.8000000      0.0000000E+00
  0.8100000      0.0000000E+00
  0.8200000      0.0000000E+00
  0.8300000      0.0000000E+00
  0.8400000      0.0000000E+00
  0.8500000      0.0000000E+00
  0.8600000      0.0000000E+00
  0.8700000      0.0000000E+00
  0.8800000      0.0000000E+00
  0.8900000      0.0000000E+00
  0.9000000      0.0000000E+00
  0.9100000      0.0000000E+00
  0.9200000      0.0000000E+00
  0.9300000      0.0000000E+00
  0.9400000      0.0000000E+00
  0.9500000      0.0000000E+00
  0.9600000      0.0000000E+00
  0.9700000      0.0000000E+00
  0.9800000      0.0000000E+00
  0.9900000      0.0000000E+00
   1.000000      0.0000000E+00
   1.010000      0.0000000E+00
   1.020000      0.0000000E+00
   1.030000      0.0000000E+00
   1.040000      0.0000000E+00
   1.050000      0.0000000E+00
   1.060000      0.0000000E+00
   1.070000      0.0000000E+00
   1.080000      0.0000000E+00
   1.090000      0.0000000E+00
   1.100000      0.0000000E+00
   1.110000      0.0000000E+00
   1.120000      0.0000000E+00
   1.130000      0.0000000E+00
   1.140000      0.0000000E+00
   1.150000      0.0000000E+00
   1.160000      0.0000000E+00
   1.170000      0.0000000E+00
   1.180000      0.0000000E+00
   1.190000      0.0000000E+00
   1.200000      0.0000000E+00
   1.210000      0.0000000E+00
   1.220000      0.0000000E+00
   1.230000      0.0000000E+00
   1.240000      0.0000000E+00
   1.250000      0.0000000E+00
   1.260000      0.0000000E+00
   1.270000      0.0000000E+00
   1.280000      0.0000000E+00
   1.290000      0.0000000E+00
   1.300000      0.0000000E+00
   1.310000      0.0000000E+00
   1.320000      0.0000000E+00
   1.330000      0.0000000E+00
   1.340000      0.0000000E+00
   1.350000      0.0000000E+00
   1.360000      0.0000000E+00
   1.370000      0.0000000E+00
   1.380000      0.0000000E+00
   1.390000      0.0000000E+00
   1.400000      0.0000000E+00
   1.410000      0.0000000E+00
   1.420000      0.0000000E+00
   1.430000      0.0000000E+00
   1.440000      0.0000000E+00
   1.450000      0.0000000E+00
   1.460000      0.0000000E+00
   1.470000      0.0000000E+00
   1.480000      0.0000000E+00
   1.490000      0.0000000E+00
   1.500000      0.0000000E+00
   1.510000      0.0000000E+00
   1.520000      0.0000000E+00
   1.530000      0.0000000E+00
   1.540000      0.0000000E+00
   1.550000      0.0000000E+00
   1.560000      0.0000000E+00
   1.570000      0.0000000E+00
   1.580000      0.0000000E+00
   1.590000      0.0000000E+00
   1.600000      0.0000000E+00
   1.610000      0.0000000E+00
   1.620000      0.0000000E+00
   1.630000      0.0000000E+00
   1.640000      0.0000000E+00
   1.650000      0.0000000E+00
   1.660000      0.0000000E+00
   1.670000      0.0000000E+00
   1.680000      0.0000000E+00
   1.690000      0.0000000E+00
   1.700000      0.0000000E+00
   1.710000      0.0000000E+00
   1.720000      0.0000000E+00
   1.730000      0.0000000E+00
   1.740000      0.0000000E+00
   1.750000      0.0000000E+00
   1.760000      0.0000000E+00
   1.770000      0.0000000E+00
   1.780000      0.0000000E+00
   1.790000      0.0000000E+00
   1.800000      0.0000000E+00
   1.810000      0.0000000E+00
   1.820000      0.0000000E+00
   1.830000      0.0000000E+00
   1.840000      0.0000000E+00
   1.850000      0.0000000E+00
   1.860000      0.0000000E+00
   1.870000      0.0000000E+00
   1.880000      0.0000000E+00
   1.890000      0.0000000E+00
   1.900000      0.0000000E+00
   1.910000      0.0000000E+00
   1.920000      0.0000000E+00
   1.930000      0.0000000E+00
   1.940000      0.0000000E+00
   1.950000      0.0000000E+00
   1.960000      0.0000000E+00
   1.970000      0.0000000E+00
   1.980000      0.0000000E+00
   1.990000      0.0000000E+00
   2.000000      0.0000000E+00
   2.010000      0.0000000E+00
   2.020000      0.0000000E+00
   2.030000      0.0000000E+00
   2.040000      0.0000000E+00
   2.050000      0.0000000E+00
   2.060000      0.0000000E+00
   2.070000      0.0000000E+00
   2.080000      0.0000000E+00
   2.090000      0.0000000E+00
   2.100000      0.0000000E+00
   2.110000      0.0000000E+00
   2.120000      0.0000000E+00
   2.130000      0.0000000E+00
   2.140000      0.0000000E+00
   2.150000      0.0000000E+00
   2.160000      0.0000000E+00
   2.170000      0.0000000E+00
   2.180000      0.0000000E+00
   2.190000      0.0000000E+00
   2.200000      0.0000000E+00
   2.210000      0.0000000E+00
   2.220000      0.0000000E+00
   2.230000      0.0000000E+00
   2.240000      0.0000000E+00
   2.250000      0.0000000E+00
   2.260000      0.0000000E+00
   2.270000      0.0000000E+00
   2.280000      0.0000000E+00
   2.290000      0.0000000E+00
   2.300000      0.0000000E+00
   2.310000      0.0000000E+00
   2.320000      0.0000000E+00
   2.330000      0.0000000E+00
   2.340000      0.0000000E+00
   2.350000      0.0000000E+00
   2.360000      0.0000000E+00
   2.370000      0.0000000E+00
   2.380000      0.0000000E+00
   2.390000      0.0000000E+00
   2.400000      0.0000000E+00
   2.410000      0.0000000E+00
   2.420000      0.0000000E+00
   2.430000      0.0000000E+00
   2.440000      0.0000000E+00
   2.450000      0.0000000E+00
   2.460000      0.0000000E+00
   2.470000      0.0000000E+00
   2.480000      0.0000000E+00
   2.490000      0.0000000E+00
   2.500000      0.0000000E+00
   2.510000      0.0000000E+00
   2.520000      0.0000000E+00
   2.530000      0.0000000E+00
   2.540000      0.0000000E+00
   2.550000      0.0000000E+00
   2.560000      0.0000000E+00
   2.570000      0.0000000E+00
   2.580000      0.0000000E+00
   2.590000      0.0000000E+00
   2.600000      0.0000000E+00
   2.610000      0.0000000E+00
   2.620000      0.0000000E+00
   2.630000      0.0000000E+00
   2.640000      0.0000000E+00
   2.650000      0.0000000E+00
   2.660000      0.0000000E+00
   2.670000      0.0000000E+00
   2.680000      0.0000000E+00
   2.690000      0.0000000E+00
   2.700000      0.0000000E+00
   2.710000      0.0000000E+00
   2.720000      0.0000000E+00
   2.730000      0.0000000E+00
   2.740000      0.0000000E+00
   2.750000      0.0000000E+00
   2.760000      0.0000000E+00
   2.770000      0.0000000E+00
   2.780000      0.0000000E+00
   2.790000      0.0000000E+00
   2.800000      0.0000000E+00
   2.810000      0.0000000E+00
   2.820000      0.0000000E+00
   2.830000      0.0000000E+00
   2.840000      0.0000000E+00
   2.850000      0.0000000E+00
   2.860000      0.0000000E+00
   2.870000      0.0000000E+00
   2.880000      0.0000000E+00
   2.890000      0.0000000E+00
   2.900000      0.0000000E+00
   2.910000      0.0000000E+00
   2.920000      0.0000000E+00
   2.930000      0.0000000E+00
   2.940000      0.0000000E+00
   2.950000      0.0000000E+00
   2.960000      0.0000000E+00
   2.970000      0.0000000E+00
   2.980000      0.0000000E+00
   2.990000      0.0000000E+00
   3.000000      0.0000000E+00
   3.010000      0.0000000E+00
   3.020000      0.0000000E+00
   3.030000      0.0000000E+00
   3.040000      0.0000000E+00
   3.050000      0.0000000E+00
   3.060000      0.0000000E+00
   3.070000      0.0000000E+00
   3.080000      0.0000000E+00
   3.090000      0.0000000E+00
   3.100000      0.0000000E+00
   3.110000      0.0000000E+00
   3.120000      0.0000000E+00
   3.130000      0.0000000E+00
   3.140000      0.0000000E+00
   3.150000      1.6682717E-38
   3.160000      1.3457385E-38
   3.170000      0.0000000E+00
   3.180000     -2.0974755E-38
   3.190000     -4.1285431E-38
   3.200000     -6.1352087E-38
   3.210000     -7.9932323E-38
   3.220000     -9.5470173E-38
   3.230000     -1.0627031E-37
   3.240000     -1.1180139E-37
   3.250000     -1.0740908E-37
   3.260000     -9.6517425E-38
   3.270000     -8.6413514E-38
   3.280000     -7.5888047E-38
   3.290000     -6.7123340E-38
   3.300000     -5.7934129E-38
   3.310000     -5.7797486E-38
   3.320000     -6.9466776E-38
   3.330000     -8.9537142E-38
   3.340000     -1.2242831E-37
   3.350000     -1.5781461E-37
   3.360000     -1.8289121E-37
   3.370000     -2.0142923E-37
   3.380000     -2.1493999E-37
   3.390000     -2.2475274E-37
   3.400000     -2.3867406E-37
   3.410000     -2.5698874E-37
   3.420000     -2.7731721E-37
   3.430000     -2.7498570E-37
   3.440000     -2.3842923E-37
   3.450000     -1.7325700E-37
   3.460000     -8.7067746E-38
   3.470000      0.0000000E+00
   3.480000      7.1998698E-38
   3.490000      1.2873181E-37
   3.500000      1.8627147E-37
   3.510000      2.3964273E-37
   3.520000      2.8497624E-37
   3.530000      3.2394343E-37
   3.540000      3.5856820E-37
   3.550000      3.8860858E-37
   3.560000      4.1512030E-37
   3.570000      4.4331267E-37
   3.580000      4.7353153E-37
   3.590000      5.0089259E-37
   3.600000      5.3017578E-37
   3.610000      5.7001544E-37
   3.620000      6.1214156E-37
   3.630000      6.6649992E-37
   3.640000      7.4729669E-37
   3.650000      8.9751978E-37
   3.660000      1.1146374E-36
   3.670000      1.3357478E-36
   3.680000      1.5545687E-36
   3.690000      1.7858126E-36
   3.700000      1.9900185E-36
   3.710000      2.1948418E-36
   3.720000      2.4744944E-36
   3.730000      2.7844772E-36
   3.740000      2.7635893E-36
   3.750000      2.2879522E-36
   3.760000      1.6267510E-36
   3.770000      9.0637518E-37
   3.780000      2.5264391E-37
   3.790000     -2.7824330E-37
   3.800000     -4.3932406E-37
   3.810000     -3.0364476E-37
   3.820000     -3.2441467E-37
   3.830000     -4.9036191E-37
   3.840000     -6.3436104E-37
   3.850000     -7.4049019E-37
   3.860000     -8.0129493E-37
   3.870000     -8.1143262E-37
   3.880000     -8.4971968E-37
   3.890000     -9.9790082E-37
   3.900000     -1.1992194E-36
   3.910000     -1.3177362E-36
   3.920000     -1.3729782E-36
   3.930000     -1.6574721E-36
   3.940000     -2.5431132E-36
   3.950000     -3.9000146E-36
   3.960000     -5.2570136E-36
   3.970000     -6.4879353E-36
   3.980000     -7.2130469E-36
   3.990000     -7.4787578E-36
   4.000000     -7.8701679E-36
   4.010000     -8.4217110E-36
   4.020000     -9.0789189E-36
   4.030000     -9.6678233E-36
   4.040000     -1.0153733E-35
   4.050000     -1.0663814E-35
   4.060000     -1.1318996E-35
   4.070000     -1.2085759E-35
   4.080000     -1.2755831E-35
   4.090000     -1.3044223E-35
   4.100000     -1.2864621E-35
   4.110000     -1.2358664E-35
   4.120000     -1.1633566E-35
   4.130000     -1.0794020E-35
   4.140000     -9.7793554E-36
   4.150000     -8.5191499E-36
   4.160000     -7.0451450E-36
   4.170000     -5.4862073E-36
   4.180000     -3.9668167E-36
   4.190000     -2.3611326E-36
   4.200000     -8.1110617E-37
   4.210000      5.6027599E-37
   4.220000      1.9756120E-36
   4.230000      3.0702960E-36
   4.240000      3.8039601E-36
   4.250000      4.3253988E-36
   4.260000      5.0202304E-36
   4.270000      6.2494450E-36
   4.280000      8.0862360E-36
   4.290000      1.0359531E-35
   4.300000      1.2720258E-35
   4.310000      1.5564508E-35
   4.320000      1.8742356E-35
   4.330000      2.1853068E-35
   4.340000      2.4723051E-35
   4.350000      2.6943303E-35
   4.360000      2.8984984E-35
   4.370000      3.1418731E-35
   4.380000      3.4481385E-35
   4.390000      3.8084103E-35
   4.400000      4.1888480E-35
   4.410000      4.5182057E-35
   4.420000      4.7933313E-35
   4.430000      5.0315687E-35
   4.440000      5.2200806E-35
   4.450000      5.4171090E-35
   4.460000      5.6376531E-35
   4.470000      5.7684797E-35
   4.480000      5.8742185E-35
   4.490000      6.0710816E-35
   4.500000      6.2270568E-35
   4.510000      6.2254336E-35
   4.520000      6.1602499E-35
   4.530000      6.1254190E-35
   4.540000      6.0340765E-35
   4.550000      5.7071910E-35
   4.560000      5.1741594E-35
   4.570000      5.0130116E-35
   4.580000      5.1490814E-35
   4.590000      5.1959892E-35
   4.600000      5.2690030E-35
   4.610000      5.4446275E-35
   4.620000      5.4140612E-35
   4.630000      5.0469638E-35
   4.640000      4.3877370E-35
   4.650000      3.3623742E-35
   4.660000      2.1564784E-35
   4.670000      9.6183412E-36
   4.680000     -1.3252135E-36
   4.690000     -1.0710986E-35
   4.700000     -1.8317251E-35
   4.710000     -2.8209907E-35
   4.720000     -4.3388644E-35
   4.730000     -6.0954525E-35
   4.740000     -7.6148679E-35
   4.750000     -8.8708010E-35
   4.760000     -1.0494252E-34
   4.770000     -1.2471411E-34
   4.780000     -1.4004529E-34
   4.790000     -1.5114356E-34
   4.800000     -1.6245692E-34
   4.810000     -1.7365929E-34
   4.820000     -1.8704272E-34
   4.830000     -2.0632752E-34
   4.840000     -2.3197796E-34
   4.850000     -2.6651857E-34
   4.860000     -3.0703979E-34
   4.870000     -3.4998829E-34
   4.880000     -3.8482450E-34
   4.890000     -4.0369934E-34
   4.900000     -4.1064605E-34
   4.910000     -4.1370394E-34
   4.920000     -4.0793190E-34
   4.930000     -3.9144247E-34
   4.940000     -3.7458275E-34
   4.950000     -3.6475445E-34
   4.960000     -3.6438849E-34
   4.970000     -3.7285076E-34
   4.980000     -3.9041014E-34
   4.990000     -4.1054870E-34
   5.000000     -4.3084242E-34
   5.010000     -4.4910827E-34
   5.020000     -4.5727791E-34
   5.030000     -4.5129386E-34
   5.040000     -4.3909834E-34
   5.050000     -4.1973005E-34
   5.060000     -4.0097297E-34
   5.070000     -3.8521565E-34
   5.080000     -3.5735281E-34
   5.090000     -3.1835950E-34
   5.100000     -2.7257570E-34
   5.110000     -2.2024016E-34
   5.120000     -1.7297116E-34
   5.130000     -1.3363132E-34
   5.140000     -9.7692489E-35
   5.150000     -6.6127044E-35
   5.160000     -2.6761240E-35
   5.170000      2.3771694E-35
   5.180000      8.0780936E-35
   5.190000      1.5393387E-34
   5.200000      2.4186478E-34
   5.210000      3.3437279E-34
   5.220000      4.3544696E-34
   5.230000      5.4778124E-34
   5.240000      6.7024796E-34
   5.250000      8.0441530E-34
   5.260000      9.5008284E-34
   5.270000      1.0991389E-33
   5.280000      1.2528966E-33
   5.290000      1.4177189E-33
   5.300000      1.5737570E-33
   5.310000      1.7093776E-33
   5.320000      1.8315543E-33
   5.330000      1.9416200E-33
   5.340000      2.0415775E-33
   5.350000      2.1358150E-33
   5.360000      2.2239888E-33
   5.370000      2.3078637E-33
   5.380000      2.3974268E-33
   5.390000      2.4968659E-33
   5.400000      2.6045941E-33
   5.410000      2.7199852E-33
   5.420000      2.8424741E-33
   5.430000      2.9692403E-33
   5.440000      3.0938637E-33
   5.450000      3.2088564E-33
   5.460000      3.3083271E-33
   5.470000      3.3879764E-33
   5.480000      3.4439733E-33
   5.490000      3.4730601E-33
   5.500000      3.4740806E-33
   5.510000      3.4467239E-33
   5.520000      3.3925050E-33
   5.530000      3.3152372E-33
   5.540000      3.2187721E-33
   5.550000      3.1090246E-33
   5.560000      2.9903717E-33
   5.570000      2.8600602E-33
   5.580000      2.7178908E-33
   5.590000      2.5642805E-33
   5.600000      2.3958008E-33
   5.610000      2.2052000E-33
   5.620000      1.9865000E-33
   5.630000      1.7326265E-33
   5.640000      1.4418361E-33
   5.650000      1.1100686E-33
   5.660000      7.2789852E-34
   5.670000      2.9425532E-34
   5.680000     -1.9064988E-34
   5.690000     -7.2233710E-34
   5.700000     -1.3053190E-33
   5.710000     -1.9317714E-33
   5.720000     -2.5884635E-33
   5.730000     -3.2743538E-33
   5.740000     -3.9819052E-33
   5.750000     -4.7072697E-33
   5.760000     -5.4543941E-33
   5.770000     -6.2269367E-33
   5.780000     -7.0226795E-33
   5.790000     -7.8459450E-33
   5.800000     -8.7000357E-33
   5.810000     -9.5841507E-33
   5.820000     -1.0503801E-32
   5.830000     -1.1461965E-32
   5.840000     -1.2457209E-32
   5.850000     -1.3486754E-32
   5.860000     -1.4546568E-32
   5.870000     -1.5630191E-32
   5.880000     -1.6729373E-32
   5.890000     -1.7834794E-32
   5.900000     -1.8936958E-32
   5.910000     -2.0026508E-32
   5.920000     -2.1094993E-32
   5.930000     -2.2135074E-32
   5.940000     -2.3140885E-32
   5.950000     -2.4108532E-32
   5.960000     -2.5034068E-32
   5.970000     -2.5914734E-32
   5.980000     -2.6747439E-32
   5.990000     -2.7529120E-32
   6.000000     -2.8256492E-32
   6.010000     -2.8922656E-32
   6.020000     -2.9520448E-32
   6.030000     -3.0039923E-32
   6.040000     -3.0467967E-32
   6.050000     -3.0789953E-32
   6.060000     -3.0989881E-32
   6.070000     -3.1051412E-32
   6.080000     -3.0958924E-32
   6.090000     -3.0696433E-32
   6.100000     -3.0249111E-32
   6.110000     -2.9605210E-32
   6.120000     -2.8754323E-32
   6.130000     -2.7688123E-32
   6.140000     -2.6399575E-32
   6.150000     -2.4883091E-32
   6.160000     -2.3132594E-32
   6.170000     -2.1142887E-32
   6.180000     -1.8908015E-32
   6.190000     -1.6418725E-32
   6.200000     -1.3664984E-32
   6.210000     -1.0635132E-32
   6.220000     -7.3138737E-33
   6.230000     -3.6900288E-33
   6.240000      2.4763269E-34
   6.250000      4.5145492E-33
   6.260000      9.1220624E-33
   6.270000      1.4079046E-32
   6.280000      1.9391810E-32
   6.290000      2.5063359E-32
   6.300000      3.1093307E-32
   6.310000      3.7478166E-32
   6.320000      4.4211756E-32
   6.330000      5.1286007E-32
   6.340000      5.8691075E-32
   6.350000      6.6416254E-32
   6.360000      7.4450781E-32
   6.370000      8.2783708E-32
   6.380000      9.1403978E-32
   6.390000      1.0030020E-31
   6.400000      1.0946007E-31
   6.410000      1.1886975E-31
   6.420000      1.2851286E-31
   6.430000      1.3836978E-31
   6.440000      1.4841659E-31
   6.450000      1.5862459E-31
   6.460000      1.6895996E-31
   6.470000      1.7938345E-31
   6.480000      1.8985057E-31
   6.490000      2.0031202E-31
   6.500000      2.1071430E-31
   6.510000      2.2100025E-31
   6.520000      2.3111004E-31
   6.530000      2.4098158E-31
   6.540000      2.5055117E-31
   6.550000      2.5975371E-31
   6.560000      2.6852269E-31
   6.570000      2.7678963E-31
   6.580000      2.8448409E-31
   6.590000      2.9153304E-31
   6.600000      2.9785962E-31
   6.610000      3.0338294E-31
   6.620000      3.0801746E-31
   6.630000      3.1167281E-31
   6.640000      3.1425356E-31
   6.650000      3.1565971E-31
   6.660000      3.1578715E-31
   6.670000      3.1452874E-31
   6.680000      3.1177514E-31
   6.690000      3.0741566E-31
   6.700000      3.0133974E-31
   6.710000      2.9343769E-31
   6.720000      2.8360122E-31
   6.730000      2.7172410E-31
   6.740000      2.5770255E-31
   6.750000      2.4143509E-31
   6.760000      2.2282245E-31
   6.770000      2.0176740E-31
   6.780000      1.7817443E-31
   6.790000      1.5194983E-31
   6.800000      1.2300180E-31
   6.810000      9.1240984E-32
   6.820000      5.6581045E-32
   6.830000      1.8939710E-32
   6.840000     -2.1759848E-32
   6.850000     -6.5587536E-32
   6.860000     -1.1260475E-31
   6.870000     -1.6286278E-31
   6.880000     -2.1640115E-31
   6.890000     -2.7324637E-31
   6.900000     -3.3341080E-31
   6.910000     -3.9689170E-31
   6.920000     -4.6367069E-31
   6.930000     -5.3371337E-31
   6.940000     -6.0696895E-31
   6.950000     -6.8336988E-31
   6.960000     -7.6283184E-31
   6.970000     -8.4525304E-31
   6.980000     -9.3051343E-31
   6.990000     -1.0184747E-30
   7.000000     -1.1089782E-30
   7.010000     -1.2018439E-30
   7.020000     -1.2968688E-30
   7.030000     -1.3938260E-30
   7.040000     -1.4924612E-30
   7.050000     -1.5924932E-30
   7.060000     -1.6936111E-30