  -2.600000      0.0000000E+00
  -2.590000      0.0000000E+00
  -2.580000      0.0000000E+00
  -2.570000      0.0000000E+00
  -2.560000      0.0000000E+00
  -2.550000      0.0000000E+00
  -2.540000      0.0000000E+00
  -2.530000      0.0000000E+00
  -2.520000      0.0000000E+00
  -2.510000      0.0000000E+00
  -2.500000      0.0000000E+00
  -2.490000      0.0000000E+00
  -2.480000      0.0000000E+00
  -2.470000      0.0000000E+00
  -2.460000      0.0000000E+00
  -2.450000      0.0000000E+00
  -2.440000      0.0000000E+00
  -2.430000      0.0000000E+00
  -2.420000      0.0000000E+00
  -2.410000      0.0000000E+00
  -2.400000      0.0000000E+00
  -2.390000      0.0000000E+00
  -2.380000      0.0000000E+00
  -2.370000      0.0000000E+00
  -2.360000      0.0000000E+00
  -2.350000      0.0000000E+00
  -2.340000      0.0000000E+00
  -2.330000      0.0000000E+00
  -2.320000      0.0000000E+00
  -2.310000      0.0000000E+00
  -2.300000      0.0000000E+00
  -2.290000      0.0000000E+00
  -2.280000      0.0000000E+00
  -2.270000      0.0000000E+00
  -2.260000      0.0000000E+00
  -2.250000      0.0000000E+00
  -2.240000      0.0000000E+00
  -2.230000      0.0000000E+00
  -2.220000      0.0000000E+00
  -2.210000      0.0000000E+00
  -2.200000      0.0000000E+00
  -2.190000      0.0000000E+00
  -2.180000      0.0000000E+00
  -2.170000      0.0000000E+00
  -2.160000      0.0000000E+00
  -2.150000      0.0000000E+00
  -2.140000      0.0000000E+00
  -2.130000      0.0000000E+00
  -2.120000      0.0000000E+00
  -2.110000      0.0000000E+00
  -2.100000      0.0000000E+00
  -2.090000      0.0000000E+00
  -2.080000      0.0000000E+00
  -2.070000      0.0000000E+00
  -2.060000      0.0000000E+00
  -2.050000      0.0000000E+00
  -2.040000      0.0000000E+00
  -2.030000      0.0000000E+00
  -2.020000      0.0000000E+00
  -2.010000      0.0000000E+00
  -2.000000      0.0000000E+00
  -1.990000      0.0000000E+00
  -1.980000      0.0000000E+00
  -1.970000      0.0000000E+00
  -1.960000      0.0000000E+00
  -1.950000      0.0000000E+00
  -1.940000      0.0000000E+00
  -1.930000      0.0000000E+00
  -1.920000      0.0000000E+00
  -1.910000      0.0000000E+00
  -1.900000      0.0000000E+00
  -1.890000      0.0000000E+00
  -1.880000      0.0000000E+00
  -1.870000      0.0000000E+00
  -1.860000      0.0000000E+00
  -1.850000      0.0000000E+00
  -1.840000      0.0000000E+00
  -1.830000      0.0000000E+00
  -1.820000      0.0000000E+00
  -1.810000      0.0000000E+00
  -1.800000      0.0000000E+00
  -1.790000      0.0000000E+00
  -1.780000      0.0000000E+00
  -1.770000      0.0000000E+00
  -1.760000      0.0000000E+00
  -1.750000      0.0000000E+00
  -1.740000      0.0000000E+00
  -1.730000      0.0000000E+00
  -1.720000      0.0000000E+00
  -1.710000      0.0000000E+00
  -1.700000      0.0000000E+00
  -1.690000      0.0000000E+00
  -1.680000      0.0000000E+00
  -1.670000      0.0000000E+00
  -1.660000      0.0000000E+00
  -1.650000      0.0000000E+00
  -1.640000      0.0000000E+00
  -1.630000      0.0000000E+00
  -1.620000      0.0000000E+00
  -1.610000      0.0000000E+00
  -1.600000      0.0000000E+00
  -1.590000      0.0000000E+00
  -1.580000      0.0000000E+00
  -1.570000      0.0000000E+00
  -1.560000      0.0000000E+00
  -1.550000      0.0000000E+00
  -1.540000      0.0000000E+00
  -1.530000      0.0000000E+00
  -1.520000      0.0000000E+00
  -1.510000      0.0000000E+00
  -1.500000      0.0000000E+00
  -1.490000      0.0000000E+00
  -1.480000      0.0000000E+00
  -1.470000      0.0000000E+00
  -1.460000      0.0000000E+00
  -1.450000      0.0000000E+00
  -1.440000      0.0000000E+00
  -1.430000      0.0000000E+00
  -1.420000      0.0000000E+00
  -1.410000      0.0000000E+00
  -1.400000      0.0000000E+00
  -1.390000      0.0000000E+00
  -1.380000      0.0000000E+00
  -1.370000      0.0000000E+00
  -1.360000      0.0000000E+00
  -1.350000      0.0000000E+00
  -1.340000      0.0000000E+00
  -1.330000      0.0000000E+00
  -1.320000      0.0000000E+00
  -1.310000      0.0000000E+00
  -1.300000      0.0000000E+00
  -1.290000      0.0000000E+00
  -1.280000      0.0000000E+00
  -1.270000      0.0000000E+00
  -1.260000      0.0000000E+00
  -1.250000      0.0000000E+00
  -1.240000      0.0000000E+00
  -1.230000      0.0000000E+00
  -1.220000      0.0000000E+00
  -1.210000      0.0000000E+00
  -1.200000      0.0000000E+00
  -1.190000      0.0000000E+00
  -1.180000      0.0000000E+00
  -1.170000      0.0000000E+00
  -1.160000      0.0000000E+00
  -1.150000      0.0000000E+00
  -1.140000      0.0000000E+00
  -1.130000      0.0000000E+00
  -1.120000      0.0000000E+00
  -1.110000      0.0000000E+00
  -1.100000      0.0000000E+00
  -1.090000      0.0000000E+00
  -1.080000      0.0000000E+00
  -1.070000      0.0000000E+00
  -1.060000      0.0000000E+00
  -1.050000      0.0000000E+00
  -1.040000      0.0000000E+00
  -1.030000      0.0000000E+00
  -1.020000      0.0000000E+00
  -1.010000      0.0000000E+00
  -1.000000      0.0000000E+00
 -0.9900000      0.0000000E+00
 -0.9800000      0.0000000E+00
 -0.9700000      0.0000000E+00
 -0.9600000      0.0000000E+00
 -0.9500000      0.0000000E+00
 -0.9400000      0.0000000E+00
 -0.9300000      0.0000000E+00
 -0.9200000      0.0000000E+00
 -0.9100000      0.0000000E+00
 -0.9000000      0.0000000E+00
 -0.8900000      0.0000000E+00
 -0.8800000      0.0000000E+00
 -0.8700000      0.0000000E+00
 -0.8600000      0.0000000E+00
 -0.8500000      0.0000000E+00
 -0.8400000      0.0000000E+00
 -0.8300000      0.0000000E+00
 -0.8200000      0.0000000E+00
 -0.8100000      0.0000000E+00
 -0.8000000      0.0000000E+00
 -0.7900000      0.0000000E+00
 -0.7800000      0.0000000E+00
 -0.7700000      0.0000000E+00
 -0.7600000      0.0000000E+00
 -0.7500000      0.0000000E+00
 -0.7400000      0.0000000E+00
 -0.7300000      0.0000000E+00
 -0.7200000      0.0000000E+00
 -0.7100000      0.0000000E+00
 -0.7000000      0.0000000E+00
 -0.6900000      0.0000000E+00
 -0.6800000      0.0000000E+00
 -0.6700000      0.0000000E+00
 -0.6600000      0.0000000E+00
 -0.6500000      0.0000000E+00
 -0.6400000      0.0000000E+00
 -0.6300000      0.0000000E+00
 -0.6200000      0.0000000E+00
 -0.6100000      0.0000000E+00
 -0.6000000      0.0000000E+00
 -0.5900000      0.0000000E+00
 -0.5800000      0.0000000E+00
 -0.5700000      0.0000000E+00
 -0.5600000      0.0000000E+00
 -0.5500000      0.0000000E+00
 -0.5400000      0.0000000E+00
 -0.5300000      0.0000000E+00
 -0.5200000      0.0000000E+00
 -0.5100000      0.0000000E+00
 -0.5000000      0.0000000E+00
 -0.4900000      0.0000000E+00
 -0.4800000      0.0000000E+00
 -0.4700000      0.0000000E+00
 -0.4600000      0.0000000E+00
 -0.4500000      0.0000000E+00
 -0.4400000      0.0000000E+00
 -0.4300000      0.0000000E+00
 -0.4200000      0.0000000E+00
 -0.4100000      0.0000000E+00
 -0.4000000      0.0000000E+00
 -0.3900000      0.0000000E+00
 -0.3800000      0.0000000E+00
 -0.3700000      0.0000000E+00
 -0.3600000      0.0000000E+00
 -0.3500000      0.0000000E+00
 -0.3400000      0.0000000E+00
 -0.3300000      0.0000000E+00
 -0.3200000      0.0000000E+00
 -0.3100000      0.0000000E+00
 -0.3000000      0.0000000E+00
 -0.2900000      0.0000000E+00
 -0.2800000      0.0000000E+00
 -0.2700000      0.0000000E+00
 -0.2600000      0.0000000E+00
 -0.2500000      0.0000000E+00
 -0.2400000      0.0000000E+00
 -0.2300000      0.0000000E+00
 -0.2200000      0.0000000E+00
 -0.2100000      0.0000000E+00
 -0.2000000      0.0000000E+00
 -0.1900000      0.0000000E+00
 -0.1800000      0.0000000E+00
 -0.1700000      0.0000000E+00
 -0.1600000      0.0000000E+00
 -0.1500000      0.0000000E+00
 -0.1400000      0.0000000E+00
 -0.1300000      0.0000000E+00
 -0.1200000      0.0000000E+00
 -0.1100000      0.0000000E+00
 -0.1000000      0.0000000E+00
 -9.0000004E-02  0.0000000E+00
 -7.9999998E-02  0.0000000E+00
 -7.0000000E-02  0.0000000E+00
 -5.9999999E-02  0.0000000E+00
 -5.0000001E-02  0.0000000E+00
 -3.9999999E-02  0.0000000E+00
 -2.9999999E-02  0.0000000E+00
 -2.0000000E-02  0.0000000E+00
 -9.9999998E-03  0.0000000E+00
 -3.4694470E-17  0.0000000E+00
  9.9999998E-03  0.0000000E+00
  2.0000000E-02  0.0000000E+00
  2.9999999E-02  0.0000000E+00
  3.9999999E-02  0.0000000E+00
  5.0000001E-02  0.0000000E+00
  5.9999999E-02  0.0000000E+00
  7.0000000E-02  0.0000000E+00
  7.9999998E-02  0.0000000E+00
  9.0000004E-02  0.0000000E+00
  0.1000000      0.0000000E+00
  0.1100000      0.0000000E+00
  0.1200000      0.0000000E+00
  0.1300000      0.0000000E+00
  0.1400000      0.0000000E+00
  0.1500000      0.0000000E+00
  0.1600000      0.0000000E+00
  0.1700000      0.0000000E+00
  0.1800000      0.0000000E+00
  0.1900000      0.0000000E+00
  0.2000000      0.0000000E+00
  0.2100000      0.0000000E+00
  0.2200000      0.0000000E+00
  0.2300000      0.0000000E+00
  0.2400000      0.0000000E+00
  0.2500000      0.0000000E+00
  0.2600000      0.0000000E+00
  0.2700000      0.0000000E+00
  0.2800000      0.0000000E+00
  0.2900000      0.0000000E+00
  0.3000000      0.0000000E+00
  0.3100000      0.0000000E+00
  0.3200000      0.0000000E+00
  0.3300000      0.0000000E+00
  0.3400000      0.0000000E+00
  0.3500000      0.0000000E+00
  0.3600000      0.0000000E+00
  0.3700000      0.0000000E+00
  0.3800000      0.0000000E+00
  0.3900000      0.0000000E+00
  0.4000000      0.0000000E+00
  0.4100000      0.0000000E+00
  0.4200000      0.0000000E+00
  0.4300000      0.0000000E+00
  0.4400000      0.0000000E+00
  0.4500000      0.0000000E+00
  0.4600000      0.0000000E+00
  0.4700000      0.0000000E+00
  0.4800000      0.0000000E+00
  0.4900000      0.0000000E+00
  0.5000000      0.0000000E+00
  0.5100000      0.0000000E+00
  0.5200000      0.0000000E+00
  0.5300000      0.0000000E+00
  0.5400000      0.0000000E+00
  0.5500000      0.0000000E+00
  0.5600000      0.0000000E+00
  0.5700000      0.0000000E+00
  0.5800000      0.0000000E+00
  0.5900000      0.0000000E+00
  0.6000000      0.0000000E+00
  0.6100000      0.0000000E+00
  0.6200000      0.0000000E+00
  0.6300000      0.0000000E+00
  0.6400000      0.0000000E+00
  0.6500000      0.0000000E+00
  0.6600000      0.0000000E+00
  0.6700000      0.0000000E+00
  0.6800000      0.0000000E+00
  0.6900000      0.0000000E+00
  0.7000000      0.0000000E+00
  0.7100000      0.0000000E+00
  0.7200000      0.0000000E+00
  0.7300000      0.0000000E+00
  0.7400000      0.0000000E+00
  0.7500000      0.0000000E+00
  0.7600000      0.0000000E+00
  0.7700000      0.0000000E+00
  0.7800000      0.0000000E+00
  0.7900000      0.0000000E+00
  0.8000000      0.0000000E+00
  0.8100000      0.0000000E+00
  0.8200000      0.0000000E+00
  0.8300000      0.0000000E+00
  0.8400000      0.0000000E+00
  0.8500000      0.0000000E+00
  0.8600000      0.0000000E+00
  0.8700000      0.0000000E+00
  0.8800000      0.0000000E+00
  0.8900000      0.0000000E+00
  0.9000000      0.0000000E+00
  0.9100000      0.0000000E+00
  0.9200000      0.0000000E+00
  0.9300000      0.0000000E+00
  0.9400000      0.0000000E+00
  0.9500000      0.0000000E+00
  0.9600000      0.0000000E+00
  0.9700000      0.0000000E+00
  0.9800000      0.0000000E+00
  0.9900000      0.0000000E+00
   1.000000      0.0000000E+00
   1.010000      0.0000000E+00
   1.020000      0.0000000E+00
   1.030000      0.0000000E+00
   1.040000      0.0000000E+00
   1.050000      0.0000000E+00
   1.060000      0.0000000E+00
   1.070000      0.0000000E+00
   1.080000      0.0000000E+00
   1.090000      0.0000000E+00
   1.100000      0.0000000E+00
   1.110000      0.0000000E+00
   1.120000      0.0000000E+00
   1.130000      0.0000000E+00
   1.140000      0.0000000E+00
   1.150000      0.0000000E+00
   1.160000      0.0000000E+00
   1.170000      0.0000000E+00
   1.180000      0.0000000E+00
   1.190000      0.0000000E+00
   1.200000      0.0000000E+00
   1.210000      0.0000000E+00
   1.220000      0.0000000E+00
   1.230000      0.0000000E+00
   1.240000      0.0000000E+00
   1.250000      0.0000000E+00
   1.260000      0.0000000E+00
   1.270000      0.0000000E+00
   1.280000      0.0000000E+00
   1.290000      0.0000000E+00
   1.300000      0.0000000E+00
   1.310000      0.0000000E+00
   1.320000      0.0000000E+00
   1.330000      0.0000000E+00
   1.340000      0.0000000E+00
   1.350000      0.0000000E+00
   1.360000      0.0000000E+00
   1.370000      0.0000000E+00
   1.380000      0.0000000E+00
   1.390000      0.0000000E+00
   1.400000      0.0000000E+00
   1.410000      0.0000000E+00
   1.420000      0.0000000E+00
   1.430000      0.0000000E+00
   1.440000      0.0000000E+00
   1.450000      0.0000000E+00
   1.460000      0.0000000E+00
   1.470000      0.0000000E+00
   1.480000      0.0000000E+00
   1.490000      0.0000000E+00
   1.500000      0.0000000E+00
   1.510000      0.0000000E+00
   1.520000      0.0000000E+00
   1.530000      0.0000000E+00
   1.540000      0.0000000E+00
   1.550000      0.0000000E+00
   1.560000      0.0000000E+00
   1.570000      0.0000000E+00
   1.580000      0.0000000E+00
   1.590000      0.0000000E+00
   1.600000      0.0000000E+00
   1.610000      0.0000000E+00
   1.620000      0.0000000E+00
   1.630000      0.0000000E+00
   1.640000      0.0000000E+00
   1.650000      0.0000000E+00
   1.660000      0.0000000E+00
   1.670000      0.0000000E+00
   1.680000      0.0000000E+00
   1.690000      0.0000000E+00
   1.700000      0.0000000E+00
   1.710000      0.0000000E+00
   1.720000      0.0000000E+00
   1.730000      0.0000000E+00
   1.740000      0.0000000E+00
   1.750000      0.0000000E+00
   1.760000      0.0000000E+00
   1.770000      0.0000000E+00
   1.780000      0.0000000E+00
   1.790000      0.0000000E+00
   1.800000      0.0000000E+00
   1.810000      0.0000000E+00
   1.820000      0.0000000E+00
   1.830000      0.0000000E+00
   1.840000      0.0000000E+00
   1.850000      0.0000000E+00
   1.860000      0.0000000E+00
   1.870000      0.0000000E+00
   1.880000      0.0000000E+00
   1.890000      0.0000000E+00
   1.900000      0.0000000E+00
   1.910000      0.0000000E+00
   1.920000      0.0000000E+00
   1.930000      0.0000000E+00
   1.940000      0.0000000E+00
   1.950000      0.0000000E+00
   1.960000      0.0000000E+00
   1.970000      0.0000000E+00
   1.980000      0.0000000E+00
   1.990000      0.0000000E+00
   2.000000      0.0000000E+00
   2.010000      0.0000000E+00
   2.020000      0.0000000E+00
   2.030000      0.0000000E+00
   2.040000      0.0000000E+00
   2.050000      0.0000000E+00
   2.060000      0.0000000E+00
   2.070000      0.0000000E+00
   2.080000      0.0000000E+00
   2.090000      0.0000000E+00
   2.100000      0.0000000E+00
   2.110000      0.0000000E+00
   2.120000      0.0000000E+00
   2.130000      0.0000000E+00
   2.140000      0.0000000E+00
   2.150000      0.0000000E+00
   2.160000      0.0000000E+00
   2.170000      0.0000000E+00
   2.180000      0.0000000E+00
   2.190000      0.0000000E+00
   2.200000      0.0000000E+00
   2.210000      0.0000000E+00
   2.220000      0.0000000E+00
   2.230000      0.0000000E+00
   2.240000      0.0000000E+00
   2.250000      0.0000000E+00
   2.260000      0.0000000E+00
   2.270000      0.0000000E+00
   2.280000      0.0000000E+00
   2.290000      0.0000000E+00
   2.300000      0.0000000E+00
   2.310000      0.0000000E+00
   2.320000      0.0000000E+00
   2.330000      0.0000000E+00
   2.340000      0.0000000E+00
   2.350000      0.0000000E+00
   2.360000      0.0000000E+00
   2.370000      0.0000000E+00
   2.380000      0.0000000E+00
   2.390000      0.0000000E+00
   2.400000      0.0000000E+00
   2.410000      0.0000000E+00
   2.420000      0.0000000E+00
   2.430000      0.0000000E+00
   2.440000      0.0000000E+00
   2.450000      0.0000000E+00
   2.460000      0.0000000E+00
   2.470000      0.0000000E+00
   2.480000      0.0000000E+00
   2.490000      0.0000000E+00
   2.500000      0.0000000E+00
   2.510000      0.0000000E+00
   2.520000      0.0000000E+00
   2.530000      0.0000000E+00
   2.540000      0.0000000E+00
   2.550000      0.0000000E+00
   2.560000      0.0000000E+00
   2.570000      0.0000000E+00
   2.580000      0.0000000E+00
   2.590000      0.0000000E+00
   2.600000      0.0000000E+00
   2.610000      0.0000000E+00
   2.620000      0.0000000E+00
   2.630000      0.0000000E+00
   2.640000      0.0000000E+00
   2.650000      0.0000000E+00
   2.660000      0.0000000E+00
   2.670000      0.0000000E+00
   2.680000      0.0000000E+00
   2.690000      0.0000000E+00
   2.700000      0.0000000E+00
   2.710000      0.0000000E+00
   2.720000      0.0000000E+00
   2.730000      0.0000000E+00
   2.740000      0.0000000E+00
   2.750000      0.0000000E+00
   2.760000      0.0000000E+00
   2.770000      0.0000000E+00
   2.780000      0.0000000E+00
   2.790000      0.0000000E+00
   2.800000      0.0000000E+00
   2.810000      0.0000000E+00
   2.820000      0.0000000E+00
   2.830000      0.0000000E+00
   2.840000      0.0000000E+00
   2.850000      0.0000000E+00
   2.860000      0.0000000E+00
   2.870000      0.0000000E+00
   2.880000      0.0000000E+00
   2.890000      0.0000000E+00
   2.900000      0.0000000E+00
   2.910000      0.0000000E+00
   2.920000      0.0000000E+00
   2.930000      0.0000000E+00
   2.940000      0.0000000E+00
   2.950000      0.0000000E+00
   2.960000      0.0000000E+00
   2.970000      0.0000000E+00
   2.980000      0.0000000E+00
   2.990000      0.0000000E+00
   3.000000      0.0000000E+00
   3.010000      0.0000000E+00
   3.020000      0.0000000E+00
   3.030000      0.0000000E+00
   3.040000      0.0000000E+00
   3.050000      0.0000000E+00
   3.060000      0.0000000E+00
   3.070000      0.0000000E+00
   3.080000     -1.5216132E-38
   3.090000     -1.9791088E-38
   3.100000     -2.4672186E-38
   3.110000     -3.0183316E-38
   3.120000     -3.2650815E-38
   3.130000     -3.1202612E-38
   3.140000     -2.8838319E-38
   3.150000     -2.5556139E-38
   3.160000     -2.0536814E-38
   3.170000     -1.3271842E-38
   3.180000      0.0000000E+00
   3.190000      1.8398826E-38
   3.200000      3.7067169E-38
   3.210000      5.6395621E-38
   3.220000      7.5982192E-38
   3.230000      9.5868691E-38
   3.240000      1.1571142E-37
   3.250000      1.3672252E-37
   3.260000      1.5840098E-37
   3.270000      1.7758678E-37
   3.280000      1.9174252E-37
   3.290000      1.9507740E-37
   3.300000      1.9078921E-37
   3.310000      1.8748391E-37
   3.320000      1.8456875E-37
   3.330000      1.7912611E-37
   3.340000      1.6921046E-37
   3.350000      1.5864888E-37
   3.360000      1.5067424E-37
   3.370000      1.4258378E-37
   3.380000      1.3356504E-37
   3.390000      1.2350829E-37
   3.400000      1.1295030E-37
   3.410000      1.0449387E-37
   3.420000      9.3144012E-38
   3.430000      7.6438813E-38
   3.440000      5.7787430E-38
   3.450000      2.8049946E-38
   3.460000     -1.2532132E-38
   3.470000     -5.5009630E-38
   3.480000     -9.9426464E-38
   3.490000     -1.4571076E-37
   3.500000     -1.9413623E-37
   3.510000     -2.4562764E-37
   3.520000     -3.0454588E-37
   3.530000     -3.6820169E-37
   3.540000     -4.2464769E-37
   3.550000     -4.7597199E-37
   3.560000     -5.2842387E-37
   3.570000     -5.8059445E-37
   3.580000     -6.3213206E-37
   3.590000     -6.8419144E-37
   3.600000     -7.4392294E-37
   3.610000     -8.1736730E-37
   3.620000     -9.0647070E-37
   3.630000     -9.9983986E-37
   3.640000     -1.1047127E-36
   3.650000     -1.2134639E-36
   3.660000     -1.3050363E-36
   3.670000     -1.3914411E-36
   3.680000     -1.5181810E-36
   3.690000     -1.6745544E-36
   3.700000     -1.8142359E-36
   3.710000     -1.9284236E-36
   3.720000     -2.0065819E-36
   3.730000     -2.0735323E-36
   3.740000     -2.1131916E-36
   3.750000     -2.1056373E-36
   3.760000     -2.0687987E-36
   3.770000     -1.9872900E-36
   3.780000     -1.7662036E-36
   3.790000     -1.4295568E-36
   3.800000     -1.1110985E-36
   3.810000     -8.0566088E-37
   3.820000     -4.7650645E-37
   3.830000     -1.2693033E-37
   3.840000      2.5832408E-37
   3.850000      6.9911933E-37
   3.860000      1.1671494E-36
   3.870000      1.6068485E-36
   3.880000      2.0200923E-36
   3.890000      2.5104332E-36
   3.900000      2.9557384E-36
   3.910000      3.2734555E-36
   3.920000      3.5738479E-36
   3.930000      3.8745349E-36
   3.940000      4.1929781E-36
   3.950000      4.5595007E-36
   3.960000      4.9377575E-36
   3.970000      5.3284063E-36
   3.980000      5.7855190E-36
   3.990000      6.3615359E-36
   4.000000      7.0516955E-36
   4.010000      7.8028575E-36
   4.020000      8.6192887E-36
   4.030000      9.3793472E-36
   4.040000      1.0024464E-35
   4.050000      1.0571015E-35
   4.060000      1.1012098E-35
   4.070000      1.1399119E-35
   4.080000      1.1804920E-35
   4.090000      1.2197519E-35
   4.100000      1.2449548E-35
   4.110000      1.2554343E-35
   4.120000      1.2541682E-35
   4.130000      1.2430132E-35
   4.140000      1.2180575E-35
   4.150000      1.1817834E-35
   4.160000      1.1379137E-35
   4.170000      1.0771311E-35
   4.180000      1.0056088E-35
   4.190000      9.2960094E-36
   4.200000      8.4464636E-36
   4.210000      7.4933639E-36
   4.220000      6.3719994E-36
   4.230000      4.8912844E-36
   4.240000      3.1264405E-36
   4.250000      1.2409472E-36
   4.260000     -8.7181347E-37
   4.270000     -3.2401601E-36
   4.280000     -5.8413793E-36
   4.290000     -8.5747764E-36
   4.300000     -1.1226485E-35
   4.310000     -1.4021458E-35
   4.320000     -1.7122227E-35
   4.330000     -2.0336513E-35
   4.340000     -2.3573291E-35
   4.350000     -2.7042084E-35
   4.360000     -3.0786995E-35
   4.370000     -3.4247861E-35
   4.380000     -3.7632987E-35
   4.390000     -4.1152619E-35
   4.400000     -4.4385349E-35
   4.410000     -4.7419617E-35
   4.420000     -5.0578296E-35
   4.430000     -5.4017662E-35
   4.440000     -5.7645985E-35
   4.450000     -6.1641919E-35
   4.460000     -6.6401443E-35
   4.470000     -7.1498514E-35
   4.480000     -7.6565893E-35
   4.490000     -8.1671425E-35
   4.500000     -8.6647014E-35
   4.510000     -9.1182793E-35
   4.520000     -9.4585682E-35
   4.530000     -9.5885975E-35
   4.540000     -9.5881361E-35
   4.550000     -9.5772237E-35
   4.560000     -9.5337562E-35
   4.570000     -9.4209949E-35
   4.580000     -9.2243154E-35
   4.590000     -8.9175561E-35
   4.600000     -8.5090030E-35
   4.610000     -8.0445013E-35
   4.620000     -7.5005936E-35
   4.630000     -6.8735264E-35
   4.640000     -6.2132717E-35
   4.650000     -5.4425916E-35
   4.660000     -4.6403087E-35
   4.670000     -3.9130677E-35
   4.680000     -3.2178670E-35
   4.690000     -2.3610354E-35
   4.700000     -1.2393819E-35
   4.710000     -1.7857085E-38
   4.720000      1.3449083E-35
   4.730000      2.7631234E-35
   4.740000      4.1765199E-35
   4.750000      5.6610809E-35
   4.760000      7.3569703E-35
   4.770000      9.1370860E-35
   4.780000      1.0755874E-34
   4.790000      1.2250892E-34
   4.800000      1.3817483E-34
   4.810000      1.5505581E-34
   4.820000      1.7363631E-34
   4.830000      1.9487364E-34
   4.840000      2.1842127E-34
   4.850000      2.4778537E-34
   4.860000      2.8201586E-34
   4.870000      3.1730204E-34
   4.880000      3.5462017E-34
   4.890000      3.9234264E-34
   4.900000      4.2548308E-34
   4.910000      4.5517598E-34
   4.920000      4.8555948E-34
   4.930000      5.1589940E-34
   4.940000      5.4468055E-34
   4.950000      5.7147654E-34
   4.960000      5.9740873E-34
   4.970000      6.2211069E-34
   4.980000      6.4296772E-34
   4.990000      6.6135819E-34
   5.000000      6.7859852E-34
   5.010000      6.9225620E-34
   5.020000      7.0000326E-34
   5.030000      7.0149508E-34
   5.040000      7.0047153E-34
   5.050000      6.9700814E-34
   5.060000      6.8773133E-34
   5.070000      6.7214519E-34
   5.080000      6.5283026E-34
   5.090000      6.3027449E-34
   5.100000      6.0357057E-34
   5.110000      5.7281523E-34
   5.120000      5.3759283E-34
   5.130000      4.9285746E-34
   5.140000      4.3786104E-34
   5.150000      3.7776917E-34
   5.160000      3.1078585E-34
   5.170000      2.3579590E-34
   5.180000      1.5637164E-34
   5.190000      7.3598746E-35
   5.200000     -1.4435112E-35
   5.210000     -1.0848762E-34
   5.220000     -2.0719782E-34
   5.230000     -3.1146442E-34
   5.240000     -4.2247850E-34
   5.250000     -5.4385256E-34
   5.260000     -6.7611281E-34
   5.270000     -8.1438276E-34
   5.280000     -9.5926106E-34
   5.290000     -1.1113536E-33
   5.300000     -1.2712609E-33
   5.310000     -1.4403381E-33
   5.320000     -1.6160219E-33
   5.330000     -1.7969907E-33
   5.340000     -1.9838961E-33
   5.350000     -2.1771779E-33
   5.360000     -2.3780963E-33
   5.370000     -2.5853479E-33
   5.380000     -2.7961646E-33
   5.390000     -3.0088264E-33
   5.400000     -3.2210217E-33
   5.410000     -3.4330617E-33
   5.420000     -3.6447224E-33
   5.430000     -3.8533755E-33
   5.440000     -4.0573572E-33
   5.450000     -4.2545104E-33
   5.460000     -4.4428382E-33
   5.470000     -4.6188920E-33
   5.480000     -4.7831468E-33
   5.490000     -4.9377143E-33
   5.500000     -5.0748784E-33
   5.510000     -5.1902623E-33
   5.520000     -5.2858910E-33
   5.530000     -5.3595706E-33
   5.540000     -5.4089689E-33
   5.550000     -5.4327216E-33
   5.560000     -5.4304933E-33
   5.570000     -5.4001799E-33
   5.580000     -5.3396860E-33
   5.590000     -5.2486190E-33
   5.600000     -5.1227673E-33
   5.610000     -4.9593897E-33
   5.620000     -4.7599465E-33
   5.630000     -4.5223916E-33
   5.640000     -4.2428749E-33
   5.650000     -3.9198769E-33
   5.660000     -3.5519255E-33
   5.670000     -3.1372901E-33
   5.680000     -2.6737640E-33
   5.690000     -2.1595347E-33
   5.700000     -1.5954871E-33
   5.710000     -9.7953136E-34
   5.720000     -3.0600492E-34
   5.730000      4.2665619E-34
   5.740000      1.2168663E-33
   5.750000      2.0647215E-33
   5.760000      2.9708473E-33
   5.770000      3.9359081E-33
   5.780000      4.9607933E-33
   5.790000      6.0441840E-33
   5.800000      7.1862738E-33
   5.810000      8.3868047E-33
   5.820000      9.6438196E-33
   5.830000      1.0955736E-32
   5.840000      1.2320111E-32
   5.850000      1.3734579E-32
   5.860000      1.5196183E-32
   5.870000      1.6701366E-32
   5.880000      1.8246934E-32
   5.890000      1.9828763E-32
   5.900000      2.1441589E-32
   5.910000      2.3079966E-32
   5.920000      2.4738046E-32
   5.930000      2.6407648E-32
   5.940000      2.8081449E-32
   5.950000      2.9754392E-32
   5.960000      3.1419210E-32
   5.970000      3.3067435E-32
   5.980000      3.4689732E-32
   5.990000      3.6276161E-32
   6.000000      3.7816350E-32
   6.010000      3.9299209E-32
   6.020000      4.0713946E-32
   6.030000      4.2048873E-32
   6.040000      4.3291015E-32
   6.050000      4.4427212E-32
   6.060000      4.5444086E-32
   6.070000      4.6328510E-32
   6.080000      4.7063508E-32
   6.090000      4.7632001E-32
   6.100000      4.8020090E-32
   6.110000      4.8212181E-32
   6.120000      4.8192050E-32
   6.130000      4.7942766E-32
   6.140000      4.7446608E-32
   6.150000      4.6686709E-32
   6.160000      4.5646470E-32
   6.170000      4.4308261E-32
   6.180000      4.2654723E-32
   6.190000      4.0668793E-32
   6.200000      3.8333315E-32
   6.210000      3.5631497E-32
   6.220000      3.2546429E-32
   6.230000      2.9062158E-32
   6.240000      2.5163299E-32
   6.250000      2.0834393E-32
   6.260000      1.6060854E-32
   6.270000      1.0828966E-32
   6.280000      5.1260664E-33
   6.290000     -1.0595564E-33
   6.300000     -7.7384439E-33
   6.310000     -1.4919772E-32
   6.320000     -2.2611299E-32
   6.330000     -3.0819158E-32
   6.340000     -3.9547600E-32
   6.350000     -4.8798894E-32
   6.360000     -5.8573173E-32
   6.370000     -6.8868217E-32
   6.380000     -7.9679192E-32
   6.390000     -9.0998668E-32
   6.400000     -1.0281633E-31
   6.410000     -1.1511858E-31
   6.420000     -1.2788867E-31
   6.430000     -1.4110634E-31
   6.440000     -1.5474786E-31
   6.450000     -1.6878544E-31
   6.460000     -1.8318744E-31
   6.470000     -1.9791812E-31
   6.480000     -2.1293744E-31
   6.490000     -2.2820107E-31
   6.500000     -2.4366004E-31
   6.510000     -2.5926083E-31
   6.520000     -2.7494505E-31
   6.530000     -2.9064944E-31
   6.540000     -3.0630583E-31
   6.550000     -3.2184093E-31
   6.560000     -3.3717494E-31
   6.570000     -3.5222764E-31
   6.580000     -3.6690997E-31
   6.590000     -3.8112480E-31
   6.600000     -3.9477473E-31
   6.610000     -4.0775562E-31
   6.620000     -4.1995796E-31
   6.630000     -4.3126725E-31
   6.640000     -4.4156434E-31
   6.650000     -4.5072507E-31
   6.660000     -4.5862067E-31
   6.670000     -4.6511848E-31
   6.680000     -4.7008033E-31
   6.690000     -4.7336429E-31
   6.700000     -4.7482529E-31
   6.710000     -4.7431474E-31
   6.720000     -4.7168093E-31
   6.730000     -4.6676939E-31
   6.740000     -4.5942377E-31
   6.750000     -4.4948581E-31
   6.760000     -4.3679616E-31
   6.770000     -4.2119519E-31
   6.780000     -4.0252340E-31
   6.790000     -3.8062211E-31
   6.800000     -3.5533445E-31
   6.810000     -3.2650597E-31
   6.820000     -2.9398561E-31
   6.830000     -2.5762670E-31
   6.840000     -2.1728776E-31
   6.850000     -1.7283363E-31
   6.860000     -1.2413654E-31
   6.870000     -7.1077171E-32
   6.880000     -1.3545846E-32
   6.890000      4.8556274E-32
   6.900000      1.1531608E-31
   6.910000      1.8680703E-31
   6.920000      2.6308807E-31
   6.930000      3.4420210E-31
   6.940000      4.3017474E-31
   6.950000      5.2101304E-31
   6.960000      6.1670383E-31
   6.970000      7.1721246E-31
   6.980000      8.2248136E-31
   6.990000      9.3242854E-31
   7.000000      1.0469461E-30
   7.010000      1.1658988E-30
   7.020000      1.2891229E-30
   7.030000      1.4164242E-30
   7.040000      1.5475768E-30
   7.050000      1.6823218E-30
   7.060000      1.8203662E-30