  -2.600000      0.0000000E+00
  -2.590000      0.0000000E+00
  -2.580000      0.0000000E+00
  -2.570000      0.0000000E+00
  -2.560000      0.0000000E+00
  -2.550000      0.0000000E+00
  -2.540000      0.0000000E+00
  -2.530000      0.0000000E+00
  -2.520000      0.0000000E+00
  -2.510000      0.0000000E+00
  -2.500000      0.0000000E+00
  -2.490000      0.0000000E+00
  -2.480000      0.0000000E+00
  -2.470000      0.0000000E+00
  -2.460000      0.0000000E+00
  -2.450000      0.0000000E+00
  -2.440000      0.0000000E+00
  -2.430000      0.0000000E+00
  -2.420000      0.0000000E+00
  -2.410000      0.0000000E+00
  -2.400000      0.0000000E+00
  -2.390000      0.0000000E+00
  -2.380000      0.0000000E+00
  -2.370000      0.0000000E+00
  -2.360000      0.0000000E+00
  -2.350000      0.0000000E+00
  -2.340000      0.0000000E+00
  -2.330000      0.0000000E+00
  -2.320000      0.0000000E+00
  -2.310000      0.0000000E+00
  -2.300000      0.0000000E+00
  -2.290000      0.0000000E+00
  -2.280000      0.0000000E+00
  -2.270000      0.0000000E+00
  -2.260000      0.0000000E+00
  -2.250000      0.0000000E+00
  -2.240000      0.0000000E+00
  -2.230000      0.0000000E+00
  -2.220000      0.0000000E+00
  -2.210000      0.0000000E+00
  -2.200000      0.0000000E+00
  -2.190000      0.0000000E+00
  -2.180000      0.0000000E+00
  -2.170000      0.0000000E+00
  -2.160000      0.0000000E+00
  -2.150000      0.0000000E+00
  -2.140000      0.0000000E+00
  -2.130000      0.0000000E+00
  -2.120000      0.0000000E+00
  -2.110000      0.0000000E+00
  -2.100000      0.0000000E+00
  -2.090000      0.0000000E+00
  -2.080000      0.0000000E+00
  -2.070000      0.0000000E+00
  -2.060000      0.0000000E+00
  -2.050000      0.0000000E+00
  -2.040000      0.0000000E+00
  -2.030000      0.0000000E+00
  -2.020000      0.0000000E+00
  -2.010000      0.0000000E+00
  -2.000000      0.0000000E+00
  -1.990000      0.0000000E+00
  -1.980000      0.0000000E+00
  -1.970000      0.0000000E+00
  -1.960000      0.0000000E+00
  -1.950000      0.0000000E+00
  -1.940000      0.0000000E+00
  -1.930000      0.0000000E+00
  -1.920000      0.0000000E+00
  -1.910000      0.0000000E+00
  -1.900000      0.0000000E+00
  -1.890000      0.0000000E+00
  -1.880000      0.0000000E+00
  -1.870000      0.0000000E+00
  -1.860000      0.0000000E+00
  -1.850000      0.0000000E+00
  -1.840000      0.0000000E+00
  -1.830000      0.0000000E+00
  -1.820000      0.0000000E+00
  -1.810000      0.0000000E+00
  -1.800000      0.0000000E+00
  -1.790000      0.0000000E+00
  -1.780000      0.0000000E+00
  -1.770000      0.0000000E+00
  -1.760000      0.0000000E+00
  -1.750000      0.0000000E+00
  -1.740000      0.0000000E+00
  -1.730000      0.0000000E+00
  -1.720000      0.0000000E+00
  -1.710000      0.0000000E+00
  -1.700000      0.0000000E+00
  -1.690000      0.0000000E+00
  -1.680000      0.0000000E+00
  -1.670000      0.0000000E+00
  -1.660000      0.0000000E+00
  -1.650000      0.0000000E+00
  -1.640000      0.0000000E+00
  -1.630000      0.0000000E+00
  -1.620000      0.0000000E+00
  -1.610000      0.0000000E+00
  -1.600000      0.0000000E+00
  -1.590000      0.0000000E+00
  -1.580000      0.0000000E+00
  -1.570000      0.0000000E+00
  -1.560000      0.0000000E+00
  -1.550000      0.0000000E+00
  -1.540000      0.0000000E+00
  -1.530000      0.0000000E+00
  -1.520000      0.0000000E+00
  -1.510000      0.0000000E+00
  -1.500000      0.0000000E+00
  -1.490000      0.0000000E+00
  -1.480000      0.0000000E+00
  -1.470000      0.0000000E+00
  -1.460000      0.0000000E+00
  -1.450000      0.0000000E+00
  -1.440000      0.0000000E+00
  -1.430000      0.0000000E+00
  -1.420000      0.0000000E+00
  -1.410000      0.0000000E+00
  -1.400000      0.0000000E+00
  -1.390000      0.0000000E+00
  -1.380000      0.0000000E+00
  -1.370000      0.0000000E+00
  -1.360000      0.0000000E+00
  -1.350000      0.0000000E+00
  -1.340000      0.0000000E+00
  -1.330000      0.0000000E+00
  -1.320000      0.0000000E+00
  -1.310000      0.0000000E+00
  -1.300000      0.0000000E+00
  -1.290000      0.0000000E+00
  -1.280000      0.0000000E+00
  -1.270000      0.0000000E+00
  -1.260000      0.0000000E+00
  -1.250000      0.0000000E+00
  -1.240000      0.0000000E+00
  -1.230000      0.0000000E+00
  -1.220000      0.0000000E+00
  -1.210000      0.0000000E+00
  -1.200000      0.0000000E+00
  -1.190000      0.0000000E+00
  -1.180000      0.0000000E+00
  -1.170000      0.0000000E+00
  -1.160000      0.0000000E+00
  -1.150000      0.0000000E+00
  -1.140000      0.0000000E+00
  -1.130000      0.0000000E+00
  -1.120000      0.0000000E+00
  -1.110000      0.0000000E+00
  -1.100000      0.0000000E+00
  -1.090000      0.0000000E+00
  -1.080000      0.0000000E+00
  -1.070000      0.0000000E+00
  -1.060000      0.0000000E+00
  -1.050000      0.0000000E+00
  -1.040000      0.0000000E+00
  -1.030000      0.0000000E+00
  -1.020000      0.0000000E+00
  -1.010000      0.0000000E+00
  -1.000000      0.0000000E+00
 -0.9900000      0.0000000E+00
 -0.9800000      0.0000000E+00
 -0.9700000      0.0000000E+00
 -0.9600000      0.0000000E+00
 -0.9500000      0.0000000E+00
 -0.9400000      0.0000000E+00
 -0.9300000      0.0000000E+00
 -0.9200000      0.0000000E+00
 -0.9100000      0.0000000E+00
 -0.9000000      0.0000000E+00
 -0.8900000      0.0000000E+00
 -0.8800000      0.0000000E+00
 -0.8700000      0.0000000E+00
 -0.8600000      0.0000000E+00
 -0.8500000      0.0000000E+00
 -0.8400000      0.0000000E+00
 -0.8300000      0.0000000E+00
 -0.8200000      0.0000000E+00
 -0.8100000      0.0000000E+00
 -0.8000000      0.0000000E+00
 -0.7900000      0.0000000E+00
 -0.7800000      0.0000000E+00
 -0.7700000      0.0000000E+00
 -0.7600000      0.0000000E+00
 -0.7500000      0.0000000E+00
 -0.7400000      0.0000000E+00
 -0.7300000      0.0000000E+00
 -0.7200000      0.0000000E+00
 -0.7100000      0.0000000E+00
 -0.7000000      0.0000000E+00
 -0.6900000      0.0000000E+00
 -0.6800000      0.0000000E+00
 -0.6700000      0.0000000E+00
 -0.6600000      0.0000000E+00
 -0.6500000      0.0000000E+00
 -0.6400000      0.0000000E+00
 -0.6300000      0.0000000E+00
 -0.6200000      0.0000000E+00
 -0.6100000      0.0000000E+00
 -0.6000000      0.0000000E+00
 -0.5900000      0.0000000E+00
 -0.5800000      0.0000000E+00
 -0.5700000      0.0000000E+00
 -0.5600000      0.0000000E+00
 -0.5500000      0.0000000E+00
 -0.5400000      0.0000000E+00
 -0.5300000      0.0000000E+00
 -0.5200000      0.0000000E+00
 -0.5100000      0.0000000E+00
 -0.5000000      0.0000000E+00
 -0.4900000      0.0000000E+00
 -0.4800000      0.0000000E+00
 -0.4700000      0.0000000E+00
 -0.4600000      0.0000000E+00
 -0.4500000      0.0000000E+00
 -0.4400000      0.0000000E+00
 -0.4300000      0.0000000E+00
 -0.4200000      0.0000000E+00
 -0.4100000      0.0000000E+00
 -0.4000000      0.0000000E+00
 -0.3900000      0.0000000E+00
 -0.3800000      0.0000000E+00
 -0.3700000      0.0000000E+00
 -0.3600000      0.0000000E+00
 -0.3500000      0.0000000E+00
 -0.3400000      0.0000000E+00
 -0.3300000      0.0000000E+00
 -0.3200000      0.0000000E+00
 -0.3100000      0.0000000E+00
 -0.3000000      0.0000000E+00
 -0.2900000      0.0000000E+00
 -0.2800000      0.0000000E+00
 -0.2700000      0.0000000E+00
 -0.2600000      0.0000000E+00
 -0.2500000      0.0000000E+00
 -0.2400000      0.0000000E+00
 -0.2300000      0.0000000E+00
 -0.2200000      0.0000000E+00
 -0.2100000      0.0000000E+00
 -0.2000000      0.0000000E+00
 -0.1900000      0.0000000E+00
 -0.1800000      0.0000000E+00
 -0.1700000      0.0000000E+00
 -0.1600000      0.0000000E+00
 -0.1500000      0.0000000E+00
 -0.1400000      0.0000000E+00
 -0.1300000      0.0000000E+00
 -0.1200000      0.0000000E+00
 -0.1100000      0.0000000E+00
 -0.1000000      0.0000000E+00
 -9.0000004E-02  0.0000000E+00
 -7.9999998E-02  0.0000000E+00
 -7.0000000E-02  0.0000000E+00
 -5.9999999E-02  0.0000000E+00
 -5.0000001E-02  0.0000000E+00
 -3.9999999E-02  0.0000000E+00
 -2.9999999E-02  0.0000000E+00
 -2.0000000E-02  0.0000000E+00
 -9.9999998E-03  0.0000000E+00
 -3.4694470E-17  0.0000000E+00
  9.9999998E-03  0.0000000E+00
  2.0000000E-02  0.0000000E+00
  2.9999999E-02  0.0000000E+00
  3.9999999E-02  0.0000000E+00
  5.0000001E-02  0.0000000E+00
  5.9999999E-02  0.0000000E+00
  7.0000000E-02  0.0000000E+00
  7.9999998E-02  0.0000000E+00
  9.0000004E-02  0.0000000E+00
  0.1000000      0.0000000E+00
  0.1100000      0.0000000E+00
  0.1200000      0.0000000E+00
  0.1300000      0.0000000E+00
  0.1400000      0.0000000E+00
  0.1500000      0.0000000E+00
  0.1600000      0.0000000E+00
  0.1700000      0.0000000E+00
  0.1800000      0.0000000E+00
  0.1900000      0.0000000E+00
  0.2000000      0.0000000E+00
  0.2100000      0.0000000E+00
  0.2200000      0.0000000E+00
  0.2300000      0.0000000E+00
  0.2400000      0.0000000E+00
  0.2500000      0.0000000E+00
  0.2600000      0.0000000E+00
  0.2700000      0.0000000E+00
  0.2800000      0.0000000E+00
  0.2900000      0.0000000E+00
  0.3000000      0.0000000E+00
  0.3100000      0.0000000E+00
  0.3200000      0.0000000E+00
  0.3300000      0.0000000E+00
  0.3400000      0.0000000E+00
  0.3500000      0.0000000E+00
  0.3600000      0.0000000E+00
  0.3700000      0.0000000E+00
  0.3800000      0.0000000E+00
  0.3900000      0.0000000E+00
  0.4000000      0.0000000E+00
  0.4100000      0.0000000E+00
  0.4200000      0.0000000E+00
  0.4300000      0.0000000E+00
  0.4400000      0.0000000E+00
  0.4500000      0.0000000E+00
  0.4600000      0.0000000E+00
  0.4700000      0.0000000E+00
  0.4800000      0.0000000E+00
  0.4900000      0.0000000E+00
  0.5000000      0.0000000E+00
  0.5100000      0.0000000E+00
  0.5200000      0.0000000E+00
  0.5300000      0.0000000E+00
  0.5400000      0.0000000E+00
  0.5500000      0.0000000E+00
  0.5600000      0.0000000E+00
  0.5700000      0.0000000E+00
  0.5800000      0.0000000E+00
  0.5900000      0.0000000E+00
  0.6000000      0.0000000E+00
  0.6100000      0.0000000E+00
  0.6200000      0.0000000E+00
  0.6300000      0.0000000E+00
  0.6400000      0.0000000E+00
  0.6500000      0.0000000E+00
  0.6600000      0.0000000E+00
  0.6700000      0.0000000E+00
  0.6800000      0.0000000E+00
  0.6900000      0.0000000E+00
  0.7000000      0.0000000E+00
  0.7100000      0.0000000E+00
  0.7200000      0.0000000E+00
  0.7300000      0.0000000E+00
  0.7400000      0.0000000E+00
  0.7500000      0.0000000E+00
  0.7600000      0.0000000E+00
  0.7700000      0.0000000E+00
  0.7800000      0.0000000E+00
  0.7900000      0.0000000E+00
  0.8000000      0.0000000E+00
  0.8100000      0.0000000E+00
  0.8200000      0.0000000E+00
  0.8300000      0.0000000E+00
  0.8400000      0.0000000E+00
  0.8500000      0.0000000E+00
  0.8600000      0.0000000E+00
  0.8700000      0.0000000E+00
  0.8800000      0.0000000E+00
  0.8900000      0.0000000E+00
  0.9000000      0.0000000E+00
  0.9100000      0.0000000E+00
  0.9200000      0.0000000E+00
  0.9300000      0.0000000E+00
  0.9400000      0.0000000E+00
  0.9500000      0.0000000E+00
  0.9600000      0.0000000E+00
  0.9700000      0.0000000E+00
  0.9800000      0.0000000E+00
  0.9900000      0.0000000E+00
   1.000000      0.0000000E+00
   1.010000      0.0000000E+00
   1.020000      0.0000000E+00
   1.030000      0.0000000E+00
   1.040000      0.0000000E+00
   1.050000      0.0000000E+00
   1.060000      0.0000000E+00
   1.070000      0.0000000E+00
   1.080000      0.0000000E+00
   1.090000      0.0000000E+00
   1.100000      0.0000000E+00
   1.110000      0.0000000E+00
   1.120000      0.0000000E+00
   1.130000      0.0000000E+00
   1.140000      0.0000000E+00
   1.150000      0.0000000E+00
   1.160000      0.0000000E+00
   1.170000      0.0000000E+00
   1.180000      0.0000000E+00
   1.190000      0.0000000E+00
   1.200000      0.0000000E+00
   1.210000      0.0000000E+00
   1.220000      0.0000000E+00
   1.230000      0.0000000E+00
   1.240000      0.0000000E+00
   1.250000      0.0000000E+00
   1.260000      0.0000000E+00
   1.270000      0.0000000E+00
   1.280000      0.0000000E+00
   1.290000      0.0000000E+00
   1.300000      0.0000000E+00
   1.310000      0.0000000E+00
   1.320000      0.0000000E+00
   1.330000      0.0000000E+00
   1.340000      0.0000000E+00
   1.350000      0.0000000E+00
   1.360000      0.0000000E+00
   1.370000      0.0000000E+00
   1.380000      0.0000000E+00
   1.390000      0.0000000E+00
   1.400000      0.0000000E+00
   1.410000      0.0000000E+00
   1.420000      0.0000000E+00
   1.430000      0.0000000E+00
   1.440000      0.0000000E+00
   1.450000      0.0000000E+00
   1.460000      0.0000000E+00
   1.470000      0.0000000E+00
   1.480000      0.0000000E+00
   1.490000      0.0000000E+00
   1.500000      0.0000000E+00
   1.510000      0.0000000E+00
   1.520000      0.0000000E+00
   1.530000      0.0000000E+00
   1.540000      0.0000000E+00
   1.550000      0.0000000E+00
   1.560000      0.0000000E+00
   1.570000      0.0000000E+00
   1.580000      0.0000000E+00
   1.590000      0.0000000E+00
   1.600000      0.0000000E+00
   1.610000      0.0000000E+00
   1.620000      0.0000000E+00
   1.630000      0.0000000E+00
   1.640000      0.0000000E+00
   1.650000      0.0000000E+00
   1.660000      0.0000000E+00
   1.670000      0.0000000E+00
   1.680000      0.0000000E+00
   1.690000      0.0000000E+00
   1.700000      0.0000000E+00
   1.710000      0.0000000E+00
   1.720000      0.0000000E+00
   1.730000      0.0000000E+00
   1.740000      0.0000000E+00
   1.750000      0.0000000E+00
   1.760000      0.0000000E+00
   1.770000      0.0000000E+00
   1.780000      0.0000000E+00
   1.790000      0.0000000E+00
   1.800000      0.0000000E+00
   1.810000      0.0000000E+00
   1.820000      0.0000000E+00
   1.830000      0.0000000E+00
   1.840000      0.0000000E+00
   1.850000      0.0000000E+00
   1.860000      0.0000000E+00
   1.870000      0.0000000E+00
   1.880000      0.0000000E+00
   1.890000      0.0000000E+00
   1.900000      0.0000000E+00
   1.910000      0.0000000E+00
   1.920000      0.0000000E+00
   1.930000      0.0000000E+00
   1.940000      0.0000000E+00
   1.950000      0.0000000E+00
   1.960000      0.0000000E+00
   1.970000      0.0000000E+00
   1.980000      0.0000000E+00
   1.990000      0.0000000E+00
   2.000000      0.0000000E+00
   2.010000      0.0000000E+00
   2.020000      0.0000000E+00
   2.030000      0.0000000E+00
   2.040000      0.0000000E+00
   2.050000      0.0000000E+00
   2.060000      0.0000000E+00
   2.070000      0.0000000E+00
   2.080000      0.0000000E+00
   2.090000      0.0000000E+00
   2.100000      0.0000000E+00
   2.110000      0.0000000E+00
   2.120000      0.0000000E+00
   2.130000      0.0000000E+00
   2.140000      0.0000000E+00
   2.150000      0.0000000E+00
   2.160000      0.0000000E+00
   2.170000      0.0000000E+00
   2.180000      0.0000000E+00
   2.190000      0.0000000E+00
   2.200000      0.0000000E+00
   2.210000      0.0000000E+00
   2.220000      0.0000000E+00
   2.230000      0.0000000E+00
   2.240000      0.0000000E+00
   2.250000      0.0000000E+00
   2.260000      0.0000000E+00
   2.270000      0.0000000E+00
   2.280000      0.0000000E+00
   2.290000      0.0000000E+00
   2.300000      0.0000000E+00
   2.310000      0.0000000E+00
   2.320000      0.0000000E+00
   2.330000      0.0000000E+00
   2.340000      0.0000000E+00
   2.350000      0.0000000E+00
   2.360000      0.0000000E+00
   2.370000      0.0000000E+00
   2.380000      0.0000000E+00
   2.390000      0.0000000E+00
   2.400000      0.0000000E+00
   2.410000      0.0000000E+00
   2.420000      0.0000000E+00
   2.430000      0.0000000E+00
   2.440000      0.0000000E+00
   2.450000      0.0000000E+00
   2.460000      0.0000000E+00
   2.470000      0.0000000E+00
   2.480000      0.0000000E+00
   2.490000      0.0000000E+00
   2.500000      0.0000000E+00
   2.510000      0.0000000E+00
   2.520000      0.0000000E+00
   2.530000      0.0000000E+00
   2.540000      0.0000000E+00
   2.550000      0.0000000E+00
   2.560000      0.0000000E+00
   2.570000      0.0000000E+00
   2.580000      0.0000000E+00
   2.590000      0.0000000E+00
   2.600000      0.0000000E+00
   2.610000      0.0000000E+00
   2.620000      0.0000000E+00
   2.630000      0.0000000E+00
   2.640000      0.0000000E+00
   2.650000      0.0000000E+00
   2.660000      0.0000000E+00
   2.670000      0.0000000E+00
   2.680000      0.0000000E+00
   2.690000      0.0000000E+00
   2.700000      0.0000000E+00
   2.710000      0.0000000E+00
   2.720000      0.0000000E+00
   2.730000      0.0000000E+00
   2.740000      0.0000000E+00
   2.750000      0.0000000E+00
   2.760000      0.0000000E+00
   2.770000      0.0000000E+00
   2.780000      0.0000000E+00
   2.790000      0.0000000E+00
   2.800000      0.0000000E+00
   2.810000      0.0000000E+00
   2.820000      0.0000000E+00
   2.830000      0.0000000E+00
   2.840000      0.0000000E+00
   2.850000      0.0000000E+00
   2.860000      0.0000000E+00
   2.870000      0.0000000E+00
   2.880000      0.0000000E+00
   2.890000      0.0000000E+00
   2.900000      0.0000000E+00
   2.910000      0.0000000E+00
   2.920000      0.0000000E+00
   2.930000      0.0000000E+00
   2.940000      0.0000000E+00
   2.950000      0.0000000E+00
   2.960000      0.0000000E+00
   2.970000      0.0000000E+00
   2.980000      0.0000000E+00
   2.990000      0.0000000E+00
   3.000000      0.0000000E+00
   3.010000      0.0000000E+00
   3.020000      0.0000000E+00
   3.030000      0.0000000E+00
   3.040000      0.0000000E+00
   3.050000      0.0000000E+00
   3.060000      0.0000000E+00
   3.070000      0.0000000E+00
   3.080000      0.0000000E+00
   3.090000      0.0000000E+00
   3.100000      0.0000000E+00
   3.110000      0.0000000E+00
   3.120000      0.0000000E+00
   3.130000      0.0000000E+00
   3.140000      0.0000000E+00
   3.150000      0.0000000E+00
   3.160000      0.0000000E+00
   3.170000      0.0000000E+00
   3.180000      0.0000000E+00
   3.190000      0.0000000E+00
   3.200000      0.0000000E+00
   3.210000      0.0000000E+00
   3.220000      0.0000000E+00
   3.230000      0.0000000E+00
   3.240000      0.0000000E+00
   3.250000      0.0000000E+00
   3.260000      0.0000000E+00
   3.270000      0.0000000E+00
   3.280000      0.0000000E+00
   3.290000      0.0000000E+00
   3.300000      0.0000000E+00
   3.310000      0.0000000E+00
   3.320000      0.0000000E+00
   3.330000      0.0000000E+00
   3.340000      0.0000000E+00
   3.350000      0.0000000E+00
   3.360000      0.0000000E+00
   3.370000      0.0000000E+00
   3.380000      0.0000000E+00
   3.390000      0.0000000E+00
   3.400000      0.0000000E+00
   3.410000      0.0000000E+00
   3.420000      0.0000000E+00
   3.430000      0.0000000E+00
   3.440000      0.0000000E+00
   3.450000      0.0000000E+00
   3.460000      0.0000000E+00
   3.470000      0.0000000E+00
   3.480000      0.0000000E+00
   3.490000      0.0000000E+00
   3.500000      0.0000000E+00
   3.510000      0.0000000E+00
   3.520000      0.0000000E+00
   3.530000      0.0000000E+00
   3.540000      0.0000000E+00
   3.550000      0.0000000E+00
   3.560000      0.0000000E+00
   3.570000      0.0000000E+00
   3.580000      0.0000000E+00
   3.590000      0.0000000E+00
   3.600000      0.0000000E+00
   3.610000      0.0000000E+00
   3.620000      0.0000000E+00
   3.630000      0.0000000E+00
   3.640000      0.0000000E+00
   3.650000      0.0000000E+00
   3.660000      0.0000000E+00
   3.670000      0.0000000E+00
   3.680000      0.0000000E+00
   3.690000      0.0000000E+00
   3.700000      0.0000000E+00
   3.710000      0.0000000E+00
   3.720000      0.0000000E+00
   3.730000      0.0000000E+00
   3.740000      0.0000000E+00
   3.750000      0.0000000E+00
   3.760000      0.0000000E+00
   3.770000      0.0000000E+00
   3.780000      0.0000000E+00
   3.790000      0.0000000E+00
   3.800000      0.0000000E+00
   3.810000      0.0000000E+00
   3.820000      0.0000000E+00
   3.830000      0.0000000E+00
   3.840000      0.0000000E+00
   3.850000      0.0000000E+00
   3.860000      0.0000000E+00
   3.870000      0.0000000E+00
   3.880000      0.0000000E+00
   3.890000      0.0000000E+00
   3.900000      0.0000000E+00
   3.910000      0.0000000E+00
   3.920000      0.0000000E+00
   3.930000      0.0000000E+00
   3.940000      0.0000000E+00
   3.950000      0.0000000E+00
   3.960000      0.0000000E+00
   3.970000      0.0000000E+00
   3.980000      0.0000000E+00
   3.990000      0.0000000E+00
   4.000000      0.0000000E+00
   4.010000      0.0000000E+00
   4.020000      0.0000000E+00
   4.030000      0.0000000E+00
   4.040000      0.0000000E+00
   4.050000      0.0000000E+00
   4.060000      0.0000000E+00
   4.070000      0.0000000E+00
   4.080000      0.0000000E+00
   4.090000      0.0000000E+00
   4.100000      0.0000000E+00
   4.110000      0.0000000E+00
   4.120000      0.0000000E+00
   4.130000      0.0000000E+00
   4.140000      0.0000000E+00
   4.150000      0.0000000E+00
   4.160000      0.0000000E+00
   4.170000      0.0000000E+00
   4.180000      0.0000000E+00
   4.190000      0.0000000E+00
   4.200000      0.0000000E+00
   4.210000      0.0000000E+00
   4.220000      0.0000000E+00
   4.230000      0.0000000E+00
   4.240000      0.0000000E+00
   4.250000      0.0000000E+00
   4.260000      0.0000000E+00
   4.270000      0.0000000E+00
   4.280000      0.0000000E+00
   4.290000      0.0000000E+00
   4.300000      0.0000000E+00
   4.310000      0.0000000E+00
   4.320000      0.0000000E+00
   4.330000      0.0000000E+00
   4.340000      0.0000000E+00
   4.350000      0.0000000E+00
   4.360000      0.0000000E+00
   4.370000      0.0000000E+00
   4.380000      0.0000000E+00
   4.390000      0.0000000E+00
   4.400000      0.0000000E+00
   4.410000      0.0000000E+00
   4.420000      0.0000000E+00
   4.430000      0.0000000E+00
   4.440000      0.0000000E+00
   4.450000      0.0000000E+00
   4.460000      0.0000000E+00
   4.470000      0.0000000E+00
   4.480000      0.0000000E+00
   4.490000      0.0000000E+00
   4.500000      0.0000000E+00
   4.510000      0.0000000E+00
   4.520000      0.0000000E+00
   4.530000      0.0000000E+00
   4.540000      0.0000000E+00
   4.550000      0.0000000E+00
   4.560000      0.0000000E+00
   4.570000      0.0000000E+00
   4.580000      0.0000000E+00
   4.590000      0.0000000E+00
   4.600000      0.0000000E+00
   4.610000      0.0000000E+00
   4.620000      0.0000000E+00
   4.630000      0.0000000E+00
   4.640000      0.0000000E+00
   4.650000      0.0000000E+00
   4.660000      0.0000000E+00
   4.670000      0.0000000E+00
   4.680000      0.0000000E+00
   4.690000      1.2031260E-38
   4.700000      1.2870861E-38
   4.710000      1.3292637E-38
   4.720000      1.3242703E-38
   4.730000      1.3193004E-38
   4.740000      1.3401183E-38
   4.750000      1.4217863E-38
   4.760000      1.5427378E-38
   4.770000      1.6682228E-38
   4.780000      1.8338694E-38
   4.790000      2.0532401E-38
   4.800000      2.2975041E-38
   4.810000      2.5526605E-38
   4.820000      2.8057728E-38
   4.830000      3.0456359E-38
   4.840000      3.2607133E-38
   4.850000      3.4308758E-38
   4.860000      3.7938043E-38
   4.870000      4.3768700E-38
   4.880000      4.8924778E-38
   4.890000      5.3200924E-38
   4.900000      5.7012680E-38
   4.910000      6.0254158E-38
   4.920000      6.2732018E-38
   4.930000      6.2390353E-38
   4.940000      5.9383044E-38
   4.950000      5.5931091E-38
   4.960000      5.2123163E-38
   4.970000      4.8262771E-38
   4.980000      4.6611057E-38
   4.990000      4.7160711E-38
   5.000000      4.7244531E-38
   5.010000      4.5913163E-38
   5.020000      4.2884567E-38
   5.030000      3.5661121E-38
   5.040000      2.7127202E-38
   5.050000      2.0076018E-38
   5.060000      1.2146758E-38
   5.070000      0.0000000E+00
   5.080000      0.0000000E+00
   5.090000     -1.6490024E-38
   5.100000     -2.7930050E-38
   5.110000     -3.9731486E-38
   5.120000     -5.2815197E-38
   5.130000     -6.7305615E-38
   5.140000     -8.2322002E-38
   5.150000     -9.7913589E-38
   5.160000     -1.1394047E-37
   5.170000     -1.2943273E-37
   5.180000     -1.4463421E-37
   5.190000     -1.6644912E-37
   5.200000     -1.9547506E-37
   5.210000     -2.2866106E-37
   5.220000     -2.6830377E-37
   5.230000     -3.1096396E-37
   5.240000     -3.5373228E-37
   5.250000     -3.9478398E-37
   5.260000     -4.3461516E-37
   5.270000     -4.7339158E-37
   5.280000     -5.1374113E-37
   5.290000     -5.5731671E-37
   5.300000     -5.9358972E-37
   5.310000     -6.7555805E-37
   5.320000     -8.1860834E-37
   5.330000     -9.7405158E-37
   5.340000     -1.1398068E-36
   5.350000     -1.3166330E-36
   5.360000     -1.4951915E-36
   5.370000     -1.6696967E-36
   5.380000     -1.7809383E-36
   5.390000     -1.8341134E-36
   5.400000     -1.8887595E-36
   5.410000     -1.9325087E-36
   5.420000     -1.9761476E-36
   5.430000     -1.9616539E-36
   5.440000     -1.8710729E-36
   5.450000     -1.7257377E-36
   5.460000     -1.5304321E-36
   5.470000     -1.3279824E-36
   5.480000     -1.1723189E-36
   5.490000     -1.0614194E-36
   5.500000     -9.5168470E-37
   5.510000     -8.4917602E-37
   5.520000     -7.5491585E-37
   5.530000     -6.6978085E-37
   5.540000     -5.9001822E-37
   5.550000     -5.2360358E-37
   5.560000     -4.8551669E-37
   5.570000     -4.7231695E-37
   5.580000     -4.4920804E-37
   5.590000     -3.9409306E-37
   5.600000     -3.8780731E-37
   5.610000     -3.6305092E-37
   5.620000     -2.0232187E-37
   5.630000      3.0633054E-38
   5.640000      1.2892177E-37
   5.650000     -1.3030099E-37
   5.660000     -5.5628652E-37
   5.670000     -9.0666127E-37
   5.680000     -1.2169714E-36
   5.690000     -1.5376155E-36
   5.700000     -1.4282517E-36
   5.710000     -8.1935388E-37
   5.720000     -1.0983738E-37
   5.730000      6.7123542E-37
   5.740000      1.3985127E-36
   5.750000      2.1277883E-36
   5.760000      2.9570432E-36
   5.770000      4.3479799E-36
   5.780000      6.3045721E-36
   5.790000      8.3179405E-36
   5.800000      1.0340797E-35
   5.810000      1.2329366E-35
   5.820000      1.4256993E-35
   5.830000      1.6094277E-35
   5.840000      1.7658349E-35
   5.850000      1.8617856E-35
   5.860000      1.9075580E-35
   5.870000      1.8902058E-35
   5.880000      1.8114457E-35
   5.890000      1.6877948E-35
   5.900000      1.5326821E-35
   5.910000      1.3827197E-35
   5.920000      1.2400104E-35
   5.930000      1.1044500E-35
   5.940000      9.7107442E-36
   5.950000      8.5660011E-36
   5.960000      8.1116493E-36
   5.970000      8.1012626E-36
   5.980000      8.0371212E-36
   5.990000      8.1624917E-36
   6.000000      8.3278817E-36
   6.010000      8.5007584E-36
   6.020000      8.8545238E-36
   6.030000      9.3276087E-36
   6.040000      9.9051549E-36
   6.050000      1.0202614E-35
   6.060000      1.0188126E-35
   6.070000      1.0396008E-35
   6.080000      1.1023720E-35
   6.090000      1.1858776E-35
   6.100000      1.2426311E-35
   6.110000      1.2796557E-35
   6.120000      1.2392857E-35
   6.130000      1.1172567E-35
   6.140000      9.3229372E-36
   6.150000      6.4550446E-36
   6.160000      3.0169134E-36
   6.170000     -8.5415370E-37
   6.180000     -5.0231903E-36
   6.190000     -9.3362390E-36
   6.200000     -1.3770096E-35
   6.210000     -1.8493738E-35
   6.220000     -2.3427991E-35
   6.230000     -2.7601526E-35
   6.240000     -3.1002085E-35
   6.250000     -3.4352118E-35
   6.260000     -3.7810287E-35
   6.270000     -4.1496957E-35
   6.280000     -4.5266703E-35
   6.290000     -5.0052280E-35
   6.300000     -5.5895514E-35
   6.310000     -6.1713224E-35
   6.320000     -6.7434311E-35
   6.330000     -7.3381934E-35
   6.340000     -8.0152081E-35
   6.350000     -8.7767339E-35
   6.360000     -9.5524488E-35
   6.370000     -1.0329456E-34
   6.380000     -1.1111605E-34
   6.390000     -1.1918860E-34
   6.400000     -1.2776565E-34
   6.410000     -1.3470538E-34
   6.420000     -1.3914019E-34
   6.430000     -1.4263156E-34
   6.440000     -1.4514495E-34
   6.450000     -1.4643321E-34
   6.460000     -1.4765952E-34
   6.470000     -1.4866082E-34
   6.480000     -1.4854925E-34
   6.490000     -1.5053882E-34
   6.500000     -1.5701309E-34
   6.510000     -1.6397490E-34
   6.520000     -1.6878895E-34
   6.530000     -1.7232859E-34
   6.540000     -1.7442815E-34
   6.550000     -1.7226986E-34
   6.560000     -1.6563063E-34
   6.570000     -1.5655455E-34
   6.580000     -1.4374181E-34
   6.590000     -1.2561925E-34
   6.600000     -1.0341825E-34
   6.610000     -7.9879037E-35
   6.620000     -5.5530078E-35
   6.630000     -3.4160698E-35
   6.640000     -2.0065762E-35
   6.650000     -8.2981220E-36
   6.660000      5.7179994E-36
   6.670000      2.1813249E-35
   6.680000      3.5499556E-35
   6.690000      4.5931113E-35
   6.700000      5.7671704E-35
   6.710000      6.9963363E-35
   6.720000      8.2773014E-35
   6.730000      9.9323189E-35
   6.740000      1.1996939E-34
   6.750000      1.4356647E-34
   6.760000      1.7258187E-34
   6.770000      2.0725049E-34
   6.780000      2.4574405E-34
   6.790000      2.8876287E-34
   6.800000      3.3751905E-34
   6.810000      3.9160538E-34
   6.820000      4.4900105E-34
   6.830000      5.0887311E-34
   6.840000      5.7025940E-34
   6.850000      6.3351381E-34
   6.860000      6.9965828E-34
   6.870000      7.6567781E-34
   6.880000      8.3078972E-34
   6.890000      8.9515759E-34
   6.900000      9.5976377E-34
   6.910000      1.0243557E-33
   6.920000      1.0897908E-33
   6.930000      1.1614177E-33
   6.940000      1.2345061E-33
   6.950000      1.3026829E-33
   6.960000      1.3690239E-33
   6.970000      1.4311346E-33
   6.980000      1.4835256E-33
   6.990000      1.5261517E-33
   7.000000      1.5648763E-33
   7.010000      1.6023544E-33
   7.020000      1.6342883E-33
   7.030000      1.6632110E-33
   7.040000      1.6918846E-33
   7.050000      1.7126381E-33
   7.060000      1.7230214E-33