  -2.600000      0.0000000E+00
  -2.590000      0.0000000E+00
  -2.580000      0.0000000E+00
  -2.570000      0.0000000E+00
  -2.560000      0.0000000E+00
  -2.550000      0.0000000E+00
  -2.540000      0.0000000E+00
  -2.530000      0.0000000E+00
  -2.520000      0.0000000E+00
  -2.510000      0.0000000E+00
  -2.500000      0.0000000E+00
  -2.490000      0.0000000E+00
  -2.480000      0.0000000E+00
  -2.470000      0.0000000E+00
  -2.460000      0.0000000E+00
  -2.450000      0.0000000E+00
  -2.440000      0.0000000E+00
  -2.430000      0.0000000E+00
  -2.420000      0.0000000E+00
  -2.410000      0.0000000E+00
  -2.400000      0.0000000E+00
  -2.390000      0.0000000E+00
  -2.380000      0.0000000E+00
  -2.370000      0.0000000E+00
  -2.360000      0.0000000E+00
  -2.350000      0.0000000E+00
  -2.340000      0.0000000E+00
  -2.330000      0.0000000E+00
  -2.320000      0.0000000E+00
  -2.310000      0.0000000E+00
  -2.300000      0.0000000E+00
  -2.290000      0.0000000E+00
  -2.280000      0.0000000E+00
  -2.270000      0.0000000E+00
  -2.260000      0.0000000E+00
  -2.250000      0.0000000E+00
  -2.240000      0.0000000E+00
  -2.230000      0.0000000E+00
  -2.220000      0.0000000E+00
  -2.210000      0.0000000E+00
  -2.200000      0.0000000E+00
  -2.190000      0.0000000E+00
  -2.180000      0.0000000E+00
  -2.170000      0.0000000E+00
  -2.160000      0.0000000E+00
  -2.150000      0.0000000E+00
  -2.140000      0.0000000E+00
  -2.130000      0.0000000E+00
  -2.120000      0.0000000E+00
  -2.110000      0.0000000E+00
  -2.100000      0.0000000E+00
  -2.090000      0.0000000E+00
  -2.080000      0.0000000E+00
  -2.070000      0.0000000E+00
  -2.060000      0.0000000E+00
  -2.050000      0.0000000E+00
  -2.040000      0.0000000E+00
  -2.030000      0.0000000E+00
  -2.020000      0.0000000E+00
  -2.010000      0.0000000E+00
  -2.000000      0.0000000E+00
  -1.990000      0.0000000E+00
  -1.980000      0.0000000E+00
  -1.970000      0.0000000E+00
  -1.960000      0.0000000E+00
  -1.950000      0.0000000E+00
  -1.940000      0.0000000E+00
  -1.930000      0.0000000E+00
  -1.920000      0.0000000E+00
  -1.910000      0.0000000E+00
  -1.900000      0.0000000E+00
  -1.890000      0.0000000E+00
  -1.880000      0.0000000E+00
  -1.870000      0.0000000E+00
  -1.860000      0.0000000E+00
  -1.850000      0.0000000E+00
  -1.840000      0.0000000E+00
  -1.830000      0.0000000E+00
  -1.820000      0.0000000E+00
  -1.810000      0.0000000E+00
  -1.800000      0.0000000E+00
  -1.790000      0.0000000E+00
  -1.780000      0.0000000E+00
  -1.770000      0.0000000E+00
  -1.760000      0.0000000E+00
  -1.750000      0.0000000E+00
  -1.740000      0.0000000E+00
  -1.730000      0.0000000E+00
  -1.720000      0.0000000E+00
  -1.710000      0.0000000E+00
  -1.700000      0.0000000E+00
  -1.690000      0.0000000E+00
  -1.680000      0.0000000E+00
  -1.670000      0.0000000E+00
  -1.660000      0.0000000E+00
  -1.650000      0.0000000E+00
  -1.640000      0.0000000E+00
  -1.630000      0.0000000E+00
  -1.620000      0.0000000E+00
  -1.610000      0.0000000E+00
  -1.600000      0.0000000E+00
  -1.590000      0.0000000E+00
  -1.580000      0.0000000E+00
  -1.570000      0.0000000E+00
  -1.560000      0.0000000E+00
  -1.550000      0.0000000E+00
  -1.540000      0.0000000E+00
  -1.530000      0.0000000E+00
  -1.520000      0.0000000E+00
  -1.510000      0.0000000E+00
  -1.500000      0.0000000E+00
  -1.490000      0.0000000E+00
  -1.480000      0.0000000E+00
  -1.470000      0.0000000E+00
  -1.460000      0.0000000E+00
  -1.450000      0.0000000E+00
  -1.440000      0.0000000E+00
  -1.430000      0.0000000E+00
  -1.420000      0.0000000E+00
  -1.410000      0.0000000E+00
  -1.400000      0.0000000E+00
  -1.390000      0.0000000E+00
  -1.380000      0.0000000E+00
  -1.370000      0.0000000E+00
  -1.360000      0.0000000E+00
  -1.350000      0.0000000E+00
  -1.340000      0.0000000E+00
  -1.330000      0.0000000E+00
  -1.320000      0.0000000E+00
  -1.310000      0.0000000E+00
  -1.300000      0.0000000E+00
  -1.290000      0.0000000E+00
  -1.280000      0.0000000E+00
  -1.270000      0.0000000E+00
  -1.260000      0.0000000E+00
  -1.250000      0.0000000E+00
  -1.240000      0.0000000E+00
  -1.230000      0.0000000E+00
  -1.220000      0.0000000E+00
  -1.210000      0.0000000E+00
  -1.200000      0.0000000E+00
  -1.190000      0.0000000E+00
  -1.180000      0.0000000E+00
  -1.170000      0.0000000E+00
  -1.160000      0.0000000E+00
  -1.150000      0.0000000E+00
  -1.140000      0.0000000E+00
  -1.130000      0.0000000E+00
  -1.120000      0.0000000E+00
  -1.110000      0.0000000E+00
  -1.100000      0.0000000E+00
  -1.090000      0.0000000E+00
  -1.080000      0.0000000E+00
  -1.070000      0.0000000E+00
  -1.060000      0.0000000E+00
  -1.050000      0.0000000E+00
  -1.040000      0.0000000E+00
  -1.030000      0.0000000E+00
  -1.020000      0.0000000E+00
  -1.010000      0.0000000E+00
  -1.000000      0.0000000E+00
 -0.9900000      0.0000000E+00
 -0.9800000      0.0000000E+00
 -0.9700000      0.0000000E+00
 -0.9600000      0.0000000E+00
 -0.9500000      0.0000000E+00
 -0.9400000      0.0000000E+00
 -0.9300000      0.0000000E+00
 -0.9200000      0.0000000E+00
 -0.9100000      0.0000000E+00
 -0.9000000      0.0000000E+00
 -0.8900000      0.0000000E+00
 -0.8800000      0.0000000E+00
 -0.8700000      0.0000000E+00
 -0.8600000      0.0000000E+00
 -0.8500000      0.0000000E+00
 -0.8400000      0.0000000E+00
 -0.8300000      0.0000000E+00
 -0.8200000      0.0000000E+00
 -0.8100000      0.0000000E+00
 -0.8000000      0.0000000E+00
 -0.7900000      0.0000000E+00
 -0.7800000      0.0000000E+00
 -0.7700000      0.0000000E+00
 -0.7600000      0.0000000E+00
 -0.7500000      0.0000000E+00
 -0.7400000      0.0000000E+00
 -0.7300000      0.0000000E+00
 -0.7200000      0.0000000E+00
 -0.7100000      0.0000000E+00
 -0.7000000      0.0000000E+00
 -0.6900000      0.0000000E+00
 -0.6800000      0.0000000E+00
 -0.6700000      0.0000000E+00
 -0.6600000      0.0000000E+00
 -0.6500000      0.0000000E+00
 -0.6400000      0.0000000E+00
 -0.6300000      0.0000000E+00
 -0.6200000      0.0000000E+00
 -0.6100000      0.0000000E+00
 -0.6000000      0.0000000E+00
 -0.5900000      0.0000000E+00
 -0.5800000      0.0000000E+00
 -0.5700000      0.0000000E+00
 -0.5600000      0.0000000E+00
 -0.5500000      0.0000000E+00
 -0.5400000      0.0000000E+00
 -0.5300000      0.0000000E+00
 -0.5200000      0.0000000E+00
 -0.5100000      0.0000000E+00
 -0.5000000      0.0000000E+00
 -0.4900000      0.0000000E+00
 -0.4800000      0.0000000E+00
 -0.4700000      0.0000000E+00
 -0.4600000      0.0000000E+00
 -0.4500000      0.0000000E+00
 -0.4400000      0.0000000E+00
 -0.4300000      0.0000000E+00
 -0.4200000      0.0000000E+00
 -0.4100000      0.0000000E+00
 -0.4000000      0.0000000E+00
 -0.3900000      0.0000000E+00
 -0.3800000      0.0000000E+00
 -0.3700000      0.0000000E+00
 -0.3600000      0.0000000E+00
 -0.3500000      0.0000000E+00
 -0.3400000      0.0000000E+00
 -0.3300000      0.0000000E+00
 -0.3200000      0.0000000E+00
 -0.3100000      0.0000000E+00
 -0.3000000      0.0000000E+00
 -0.2900000      0.0000000E+00
 -0.2800000      0.0000000E+00
 -0.2700000      0.0000000E+00
 -0.2600000      0.0000000E+00
 -0.2500000      0.0000000E+00
 -0.2400000      0.0000000E+00
 -0.2300000      0.0000000E+00
 -0.2200000      0.0000000E+00
 -0.2100000      0.0000000E+00
 -0.2000000      0.0000000E+00
 -0.1900000      0.0000000E+00
 -0.1800000      0.0000000E+00
 -0.1700000      0.0000000E+00
 -0.1600000      0.0000000E+00
 -0.1500000      0.0000000E+00
 -0.1400000      0.0000000E+00
 -0.1300000      0.0000000E+00
 -0.1200000      0.0000000E+00
 -0.1100000      0.0000000E+00
 -0.1000000      0.0000000E+00
 -9.0000004E-02  0.0000000E+00
 -7.9999998E-02  0.0000000E+00
 -7.0000000E-02  0.0000000E+00
 -5.9999999E-02  0.0000000E+00
 -5.0000001E-02  0.0000000E+00
 -3.9999999E-02  0.0000000E+00
 -2.9999999E-02  0.0000000E+00
 -2.0000000E-02  0.0000000E+00
 -9.9999998E-03  0.0000000E+00
 -3.4694470E-17  0.0000000E+00
  9.9999998E-03  0.0000000E+00
  2.0000000E-02  0.0000000E+00
  2.9999999E-02  0.0000000E+00
  3.9999999E-02  0.0000000E+00
  5.0000001E-02  0.0000000E+00
  5.9999999E-02  0.0000000E+00
  7.0000000E-02  0.0000000E+00
  7.9999998E-02  0.0000000E+00
  9.0000004E-02  0.0000000E+00
  0.1000000      0.0000000E+00
  0.1100000      0.0000000E+00
  0.1200000      0.0000000E+00
  0.1300000      0.0000000E+00
  0.1400000      0.0000000E+00
  0.1500000      0.0000000E+00
  0.1600000      0.0000000E+00
  0.1700000      0.0000000E+00
  0.1800000      0.0000000E+00
  0.1900000      0.0000000E+00
  0.2000000      0.0000000E+00
  0.2100000      0.0000000E+00
  0.2200000      0.0000000E+00
  0.2300000      0.0000000E+00
  0.2400000      0.0000000E+00
  0.2500000      0.0000000E+00
  0.2600000      0.0000000E+00
  0.2700000      0.0000000E+00
  0.2800000      0.0000000E+00
  0.2900000      0.0000000E+00
  0.3000000      0.0000000E+00
  0.3100000      0.0000000E+00
  0.3200000      0.0000000E+00
  0.3300000      0.0000000E+00
  0.3400000      0.0000000E+00
  0.3500000      0.0000000E+00
  0.3600000      0.0000000E+00
  0.3700000      0.0000000E+00
  0.3800000      0.0000000E+00
  0.3900000      0.0000000E+00
  0.4000000      0.0000000E+00
  0.4100000      0.0000000E+00
  0.4200000      0.0000000E+00
  0.4300000      0.0000000E+00
  0.4400000      0.0000000E+00
  0.4500000      0.0000000E+00
  0.4600000      0.0000000E+00
  0.4700000      0.0000000E+00
  0.4800000      0.0000000E+00
  0.4900000      0.0000000E+00
  0.5000000      0.0000000E+00
  0.5100000      0.0000000E+00
  0.5200000      0.0000000E+00
  0.5300000      0.0000000E+00
  0.5400000      0.0000000E+00
  0.5500000      0.0000000E+00
  0.5600000      0.0000000E+00
  0.5700000      0.0000000E+00
  0.5800000      0.0000000E+00
  0.5900000      0.0000000E+00
  0.6000000      0.0000000E+00
  0.6100000      0.0000000E+00
  0.6200000      0.0000000E+00
  0.6300000      0.0000000E+00
  0.6400000      0.0000000E+00
  0.6500000      0.0000000E+00
  0.6600000      0.0000000E+00
  0.6700000      0.0000000E+00
  0.6800000      0.0000000E+00
  0.6900000      0.0000000E+00
  0.7000000      0.0000000E+00
  0.7100000      0.0000000E+00
  0.7200000      0.0000000E+00
  0.7300000      0.0000000E+00
  0.7400000      0.0000000E+00
  0.7500000      0.0000000E+00
  0.7600000      0.0000000E+00
  0.7700000      0.0000000E+00
  0.7800000      0.0000000E+00
  0.7900000      0.0000000E+00
  0.8000000      0.0000000E+00
  0.8100000      0.0000000E+00
  0.8200000      0.0000000E+00
  0.8300000      0.0000000E+00
  0.8400000      0.0000000E+00
  0.8500000      0.0000000E+00
  0.8600000      0.0000000E+00
  0.8700000      0.0000000E+00
  0.8800000      0.0000000E+00
  0.8900000      0.0000000E+00
  0.9000000      0.0000000E+00
  0.9100000      0.0000000E+00
  0.9200000      0.0000000E+00
  0.9300000      0.0000000E+00
  0.9400000      0.0000000E+00
  0.9500000      0.0000000E+00
  0.9600000      0.0000000E+00
  0.9700000      0.0000000E+00
  0.9800000      0.0000000E+00
  0.9900000      0.0000000E+00
   1.000000      0.0000000E+00
   1.010000      0.0000000E+00
   1.020000      0.0000000E+00
   1.030000      0.0000000E+00
   1.040000      0.0000000E+00
   1.050000      0.0000000E+00
   1.060000      0.0000000E+00
   1.070000      0.0000000E+00
   1.080000      0.0000000E+00
   1.090000      0.0000000E+00
   1.100000      0.0000000E+00
   1.110000      0.0000000E+00
   1.120000      0.0000000E+00
   1.130000      0.0000000E+00
   1.140000      0.0000000E+00
   1.150000      0.0000000E+00
   1.160000      0.0000000E+00
   1.170000      0.0000000E+00
   1.180000      0.0000000E+00
   1.190000      0.0000000E+00
   1.200000      0.0000000E+00
   1.210000      0.0000000E+00
   1.220000      0.0000000E+00
   1.230000      0.0000000E+00
   1.240000      0.0000000E+00
   1.250000      0.0000000E+00
   1.260000      0.0000000E+00
   1.270000      0.0000000E+00
   1.280000      0.0000000E+00
   1.290000      0.0000000E+00
   1.300000      0.0000000E+00
   1.310000      0.0000000E+00
   1.320000      0.0000000E+00
   1.330000      0.0000000E+00
   1.340000      0.0000000E+00
   1.350000      0.0000000E+00
   1.360000      0.0000000E+00
   1.370000      0.0000000E+00
   1.380000      0.0000000E+00
   1.390000      0.0000000E+00
   1.400000      0.0000000E+00
   1.410000      0.0000000E+00
   1.420000      0.0000000E+00
   1.430000      0.0000000E+00
   1.440000      0.0000000E+00
   1.450000      0.0000000E+00
   1.460000      0.0000000E+00
   1.470000      0.0000000E+00
   1.480000      0.0000000E+00
   1.490000      0.0000000E+00
   1.500000      0.0000000E+00
   1.510000      0.0000000E+00
   1.520000      0.0000000E+00
   1.530000      0.0000000E+00
   1.540000      0.0000000E+00
   1.550000      0.0000000E+00
   1.560000      0.0000000E+00
   1.570000      0.0000000E+00
   1.580000      0.0000000E+00
   1.590000      0.0000000E+00
   1.600000      0.0000000E+00
   1.610000      0.0000000E+00
   1.620000      0.0000000E+00
   1.630000      0.0000000E+00
   1.640000      0.0000000E+00
   1.650000      0.0000000E+00
   1.660000      0.0000000E+00
   1.670000      0.0000000E+00
   1.680000      0.0000000E+00
   1.690000      0.0000000E+00
   1.700000      0.0000000E+00
   1.710000      0.0000000E+00
   1.720000      0.0000000E+00
   1.730000      0.0000000E+00
   1.740000      0.0000000E+00
   1.750000      0.0000000E+00
   1.760000      0.0000000E+00
   1.770000      0.0000000E+00
   1.780000      0.0000000E+00
   1.790000      0.0000000E+00
   1.800000      0.0000000E+00
   1.810000      0.0000000E+00
   1.820000      0.0000000E+00
   1.830000      0.0000000E+00
   1.840000      0.0000000E+00
   1.850000      0.0000000E+00
   1.860000      0.0000000E+00
   1.870000      0.0000000E+00
   1.880000      0.0000000E+00
   1.890000      0.0000000E+00
   1.900000      0.0000000E+00
   1.910000      0.0000000E+00
   1.920000      0.0000000E+00
   1.930000      0.0000000E+00
   1.940000      0.0000000E+00
   1.950000      0.0000000E+00
   1.960000      0.0000000E+00
   1.970000      0.0000000E+00
   1.980000      0.0000000E+00
   1.990000      0.0000000E+00
   2.000000      0.0000000E+00
   2.010000      0.0000000E+00
   2.020000      0.0000000E+00
   2.030000      0.0000000E+00
   2.040000      0.0000000E+00
   2.050000      0.0000000E+00
   2.060000      0.0000000E+00
   2.070000      0.0000000E+00
   2.080000      0.0000000E+00
   2.090000      0.0000000E+00
   2.100000      0.0000000E+00
   2.110000      0.0000000E+00
   2.120000      0.0000000E+00
   2.130000      0.0000000E+00
   2.140000      0.0000000E+00
   2.150000      0.0000000E+00
   2.160000      0.0000000E+00
   2.170000      0.0000000E+00
   2.180000      0.0000000E+00
   2.190000      0.0000000E+00
   2.200000      0.0000000E+00
   2.210000      0.0000000E+00
   2.220000      0.0000000E+00
   2.230000      0.0000000E+00
   2.240000      0.0000000E+00
   2.250000      0.0000000E+00
   2.260000      0.0000000E+00
   2.270000      0.0000000E+00
   2.280000      0.0000000E+00
   2.290000      0.0000000E+00
   2.300000      0.0000000E+00
   2.310000      0.0000000E+00
   2.320000      0.0000000E+00
   2.330000      0.0000000E+00
   2.340000      0.0000000E+00
   2.350000      0.0000000E+00
   2.360000      0.0000000E+00
   2.370000      0.0000000E+00
   2.380000      0.0000000E+00
   2.390000      0.0000000E+00
   2.400000      0.0000000E+00
   2.410000      0.0000000E+00
   2.420000      0.0000000E+00
   2.430000      0.0000000E+00
   2.440000      0.0000000E+00
   2.450000      0.0000000E+00
   2.460000      0.0000000E+00
   2.470000      0.0000000E+00
   2.480000      0.0000000E+00
   2.490000      0.0000000E+00
   2.500000      0.0000000E+00
   2.510000      0.0000000E+00
   2.520000      0.0000000E+00
   2.530000      0.0000000E+00
   2.540000      0.0000000E+00
   2.550000      0.0000000E+00
   2.560000      0.0000000E+00
   2.570000      0.0000000E+00
   2.580000      0.0000000E+00
   2.590000      0.0000000E+00
   2.600000      0.0000000E+00
   2.610000      0.0000000E+00
   2.620000      0.0000000E+00
   2.630000      0.0000000E+00
   2.640000      0.0000000E+00
   2.650000      0.0000000E+00
   2.660000      0.0000000E+00
   2.670000      0.0000000E+00
   2.680000      0.0000000E+00
   2.690000      0.0000000E+00
   2.700000      0.0000000E+00
   2.710000      0.0000000E+00
   2.720000      0.0000000E+00
   2.730000      0.0000000E+00
   2.740000      0.0000000E+00
   2.750000      0.0000000E+00
   2.760000      0.0000000E+00
   2.770000      0.0000000E+00
   2.780000      0.0000000E+00
   2.790000      0.0000000E+00
   2.800000      0.0000000E+00
   2.810000      0.0000000E+00
   2.820000      0.0000000E+00
   2.830000      0.0000000E+00
   2.840000      0.0000000E+00
   2.850000      0.0000000E+00
   2.860000      0.0000000E+00
   2.870000      0.0000000E+00
   2.880000      0.0000000E+00
   2.890000      0.0000000E+00
   2.900000      0.0000000E+00
   2.910000      0.0000000E+00
   2.920000      0.0000000E+00
   2.930000      0.0000000E+00
   2.940000      0.0000000E+00
   2.950000      0.0000000E+00
   2.960000      0.0000000E+00
   2.970000      0.0000000E+00
   2.980000      0.0000000E+00
   2.990000      0.0000000E+00
   3.000000      0.0000000E+00
   3.010000      0.0000000E+00
   3.020000      0.0000000E+00
   3.030000      0.0000000E+00
   3.040000      0.0000000E+00
   3.050000     -1.2264981E-38
   3.060000     -1.3323378E-38
   3.070000     -1.4300692E-38
   3.080000     -1.4957391E-38
   3.090000     -1.4989100E-38
   3.100000     -1.4371259E-38
   3.110000     -1.3343242E-38
   3.120000     -1.1925605E-38
   3.130000      0.0000000E+00
   3.140000      0.0000000E+00
   3.150000      0.0000000E+00
   3.160000      0.0000000E+00
   3.170000      0.0000000E+00
   3.180000      0.0000000E+00
   3.190000      0.0000000E+00
   3.200000      1.5165261E-38
   3.210000      2.2528090E-38
   3.220000      3.1152020E-38
   3.230000      4.1081957E-38
   3.240000      5.3978376E-38
   3.250000      7.0376499E-38
   3.260000      8.8732416E-38
   3.270000      1.0754894E-37
   3.280000      1.2639377E-37
   3.290000      1.4219301E-37
   3.300000      1.5427454E-37
   3.310000      1.6544070E-37
   3.320000      1.7544211E-37
   3.330000      1.8336942E-37
   3.340000      1.8809141E-37
   3.350000      1.8874282E-37
   3.360000      1.8712973E-37
   3.370000      1.8402481E-37
   3.380000      1.7785749E-37
   3.390000      1.6950107E-37
   3.400000      1.5960343E-37
   3.410000      1.4461844E-37
   3.420000      1.2335145E-37
   3.430000      1.0270046E-37
   3.440000      8.6808231E-38
   3.450000      7.1126889E-38
   3.460000      5.3179030E-38
   3.470000      3.2872719E-38
   3.480000      0.0000000E+00
   3.490000     -1.3882517E-38
   3.500000     -3.9982240E-38
   3.510000     -6.6137016E-38
   3.520000     -9.3360468E-38
   3.530000     -1.2059847E-37
   3.540000     -1.4728358E-37
   3.550000     -1.7348572E-37
   3.560000     -1.9965286E-37
   3.570000     -2.2663218E-37
   3.580000     -2.5509834E-37
   3.590000     -2.8760122E-37
   3.600000     -3.2509788E-37
   3.610000     -3.6629648E-37
   3.620000     -4.1223802E-37
   3.630000     -4.6105867E-37
   3.640000     -5.1098615E-37
   3.650000     -5.6194745E-37
   3.660000     -6.1470941E-37
   3.670000     -6.7316652E-37
   3.680000     -7.3727514E-37
   3.690000     -8.0703357E-37
   3.700000     -8.8182623E-37
   3.710000     -9.4724135E-37
   3.720000     -1.0018780E-36
   3.730000     -1.0550492E-36
   3.740000     -1.1002636E-36
   3.750000     -1.1391149E-36
   3.760000     -1.1719303E-36
   3.770000     -1.2015751E-36
   3.780000     -1.2282849E-36
   3.790000     -1.2434841E-36
   3.800000     -1.2381750E-36
   3.810000     -1.2012802E-36
   3.820000     -1.1370830E-36
   3.830000     -1.0494135E-36
   3.840000     -9.3308066E-37
   3.850000     -7.9239818E-37
   3.860000     -6.2539098E-37
   3.870000     -4.2515256E-37
   3.880000     -2.0887215E-37
   3.890000      0.0000000E+00
   3.900000      2.4830556E-37
   3.910000      5.5131781E-37
   3.920000      8.8768702E-37
   3.930000      1.2451831E-36
   3.940000      1.6377955E-36
   3.950000      2.0298432E-36
   3.960000      2.3932004E-36
   3.970000      2.7479731E-36
   3.980000      3.0972651E-36
   3.990000      3.4442932E-36
   4.000000      3.7813337E-36
   4.010000      4.1180708E-36
   4.020000      4.4641432E-36
   4.030000      4.8421808E-36
   4.040000      5.2591279E-36
   4.050000      5.6892962E-36
   4.060000      6.1512549E-36
   4.070000      6.6966243E-36
   4.080000      7.2438971E-36
   4.090000      7.6603976E-36
   4.100000      7.6536226E-36
   4.110000      7.2756119E-36
   4.120000      6.8263678E-36
   4.130000      6.2310822E-36
   4.140000      5.5136432E-36
   4.150000      4.6638488E-36
   4.160000      3.6391738E-36
   4.170000      2.6859488E-36
   4.180000      1.8008274E-36
   4.190000      9.0349555E-37
   4.200000     -1.3190495E-38
   4.210000     -8.7912533E-37
   4.220000     -1.6237856E-36
   4.230000     -2.3591479E-36
   4.240000     -3.1156430E-36
   4.250000     -3.8867738E-36
   4.260000     -4.6711766E-36
   4.270000     -5.4991483E-36
   4.280000     -6.4134711E-36
   4.290000     -7.3867386E-36
   4.300000     -8.3576579E-36
   4.310000     -9.2339228E-36
   4.320000     -1.0087641E-35
   4.330000     -1.1215659E-35
   4.340000     -1.2555166E-35
   4.350000     -1.4131999E-35
   4.360000     -1.5895683E-35
   4.370000     -1.7681108E-35
   4.380000     -1.9667907E-35
   4.390000     -2.1717242E-35
   4.400000     -2.3700156E-35
   4.410000     -2.5883949E-35
   4.420000     -2.8199099E-35
   4.430000     -3.0399762E-35
   4.440000     -3.2488810E-35
   4.450000     -3.4653548E-35
   4.460000     -3.6915634E-35
   4.470000     -3.8947067E-35
   4.480000     -4.0539669E-35
   4.490000     -4.1769940E-35
   4.500000     -4.2771676E-35
   4.510000     -4.3634611E-35
   4.520000     -4.4061758E-35
   4.530000     -4.3659223E-35
   4.540000     -4.2245407E-35
   4.550000     -3.9814054E-35
   4.560000     -3.6220310E-35
   4.570000     -3.1716069E-35
   4.580000     -2.6728962E-35
   4.590000     -2.1150286E-35
   4.600000     -1.5324859E-35
   4.610000     -9.4004077E-36
   4.620000     -3.1123419E-36
   4.630000      3.6903000E-36
   4.640000      1.0392470E-35
   4.650000      1.6841900E-35
   4.660000      2.3831185E-35
   4.670000      3.0929469E-35
   4.680000      3.8181391E-35
   4.690000      4.5912261E-35
   4.700000      5.3496513E-35
   4.710000      6.0986541E-35
   4.720000      6.8520938E-35
   4.730000      7.6124825E-35
   4.740000      8.4111758E-35
   4.750000      9.2160209E-35
   4.760000      1.0005030E-34
   4.770000      1.0827040E-34
   4.780000      1.1703467E-34
   4.790000      1.2625527E-34
   4.800000      1.3596002E-34
   4.810000      1.4644757E-34
   4.820000      1.5751593E-34
   4.830000      1.6850438E-34
   4.840000      1.7935702E-34
   4.850000      1.9044424E-34
   4.860000      2.0168035E-34
   4.870000      2.1248693E-34
   4.880000      2.2217564E-34
   4.890000      2.2985412E-34
   4.900000      2.3532231E-34
   4.910000      2.3978944E-34
   4.920000      2.4293469E-34
   4.930000      2.4354666E-34
   4.940000      2.4137702E-34
   4.950000      2.3505034E-34
   4.960000      2.2493190E-34
   4.970000      2.1226113E-34
   4.980000      1.9666131E-34
   4.990000      1.7696822E-34
   5.000000      1.5267228E-34
   5.010000      1.2908306E-34
   5.020000      1.0825012E-34
   5.030000      8.6499831E-35
   5.040000      6.4411672E-35
   5.050000      4.2190481E-35
   5.060000      1.8840074E-35
   5.070000     -5.7864387E-36
   5.080000     -3.2115381E-35
   5.090000     -5.9977952E-35
   5.100000     -8.9442745E-35
   5.110000     -1.2314101E-34
   5.120000     -1.6080724E-34
   5.130000     -1.9501853E-34
   5.140000     -2.2558809E-34
   5.150000     -2.5756094E-34
   5.160000     -2.9196304E-34
   5.170000     -3.3111017E-34
   5.180000     -3.7658635E-34
   5.190000     -4.2802821E-34
   5.200000     -4.8485253E-34
   5.210000     -5.4367844E-34
   5.220000     -6.0105377E-34
   5.230000     -6.5778735E-34
   5.240000     -7.1887123E-34
   5.250000     -7.8687371E-34
   5.260000     -8.5638446E-34
   5.270000     -9.2586793E-34
   5.280000     -9.9831190E-34
   5.290000     -1.0720569E-33
   5.300000     -1.1468601E-33
   5.310000     -1.2234417E-33
   5.320000     -1.2954862E-33
   5.330000     -1.3613410E-33
   5.340000     -1.4229450E-33
   5.350000     -1.4808199E-33
   5.360000     -1.5361532E-33
   5.370000     -1.5834802E-33
   5.380000     -1.6202066E-33
   5.390000     -1.6484584E-33
   5.400000     -1.6677758E-33
   5.410000     -1.6771222E-33
   5.420000     -1.6761005E-33
   5.430000     -1.6645768E-33
   5.440000     -1.6429875E-33
   5.450000     -1.6097925E-33
   5.460000     -1.5643034E-33
   5.470000     -1.5108971E-33
   5.480000     -1.4492224E-33
   5.490000     -1.3748575E-33
   5.500000     -1.2888130E-33
   5.510000     -1.1930663E-33
   5.520000     -1.0875350E-33
   5.530000     -9.6871635E-34
   5.540000     -8.3671917E-34
   5.550000     -6.9404194E-34
   5.560000     -5.3836824E-34
   5.570000     -3.6696151E-34
   5.580000     -1.7930173E-34
   5.590000      2.4534369E-35
   5.600000      2.4583276E-34
   5.610000      4.8553372E-34
   5.620000      7.4393906E-34
   5.630000      1.0211416E-33
   5.640000      1.3193155E-33
   5.650000      1.6378438E-33
   5.660000      1.9768252E-33
   5.670000      2.3384737E-33
   5.680000      2.7216289E-33
   5.690000      3.1247762E-33
   5.700000      3.5471273E-33
   5.710000      3.9880872E-33
   5.720000      4.4462343E-33
   5.730000      4.9199596E-33
   5.740000      5.4075455E-33
   5.750000      5.9059070E-33
   5.760000      6.4141856E-33
   5.770000      6.9310673E-33
   5.780000      7.4545539E-33
   5.790000      7.9802041E-33
   5.800000      8.5030082E-33
   5.810000      9.0225260E-33
   5.820000      9.5365131E-33
   5.830000      1.0041628E-32
   5.840000      1.0534570E-32
   5.850000      1.1012548E-32
   5.860000      1.1472994E-32
   5.870000      1.1912679E-32
   5.880000      1.2328517E-32
   5.890000      1.2717174E-32
   5.900000      1.3075116E-32
   5.910000      1.3398833E-32
   5.920000      1.3685061E-32
   5.930000      1.3930240E-32
   5.940000      1.4130670E-32
   5.950000      1.4281312E-32
   5.960000      1.4376950E-32
   5.970000      1.4413302E-32
   5.980000      1.4385694E-32
   5.990000      1.4289465E-32
   6.000000      1.4118871E-32
   6.010000      1.3867637E-32
   6.020000      1.3529922E-32
   6.030000      1.3099528E-32
   6.040000      1.2570803E-32
   6.050000      1.1937991E-32
   6.060000      1.1193705E-32
   6.070000      1.0332752E-32
   6.080000      9.3499144E-33
   6.090000      8.2387717E-33
   6.100000      6.9939262E-33
   6.110000      5.6100615E-33
   6.120000      4.0825804E-33
   6.130000      2.4070225E-33
   6.140000      5.7942063E-34
   6.150000     -1.4030525E-33
   6.160000     -3.5429003E-33
   6.170000     -5.8422789E-33
   6.180000     -8.3024674E-33
   6.190000     -1.0923961E-32
   6.200000     -1.3706693E-32
   6.210000     -1.6649865E-32
   6.220000     -1.9751854E-32
   6.230000     -2.3010287E-32
   6.240000     -2.6422066E-32
   6.250000     -2.9983290E-32
   6.260000     -3.3689277E-32
   6.270000     -3.7534507E-32
   6.280000     -4.1512451E-32
   6.290000     -4.5615693E-32
   6.300000     -4.9835935E-32
   6.310000     -5.4163765E-32
   6.320000     -5.8588701E-32
   6.330000     -6.3099132E-32
   6.340000     -6.7682196E-32
   6.350000     -7.2323706E-32
   6.360000     -7.7007863E-32
   6.370000     -8.1717999E-32
   6.380000     -8.6435545E-32
   6.390000     -9.1140550E-32
   6.400000     -9.5811729E-32
   6.410000     -1.0042532E-31
   6.420000     -1.0495616E-31
   6.430000     -1.0937741E-31
   6.440000     -1.1366038E-31
   6.450000     -1.1777464E-31
   6.460000     -1.2168786E-31
   6.470000     -1.2536596E-31
   6.480000     -1.2877320E-31
   6.490000     -1.3187216E-31
   6.500000     -1.3462381E-31
   6.510000     -1.3698753E-31
   6.520000     -1.3892133E-31
   6.530000     -1.4038198E-31
   6.540000     -1.4132498E-31
   6.550000     -1.4170484E-31
   6.560000     -1.4147511E-31
   6.570000     -1.4058863E-31
   6.580000     -1.3899770E-31
   6.590000     -1.3665413E-31
   6.600000     -1.3350945E-31
   6.610000     -1.2951513E-31
   6.620000     -1.2462273E-31
   6.630000     -1.1878402E-31
   6.640000     -1.1195124E-31
   6.650000     -1.0407727E-31
   6.660000     -9.5115801E-32
   6.670000     -8.5021567E-32
   6.680000     -7.3750962E-32
   6.690000     -6.1261241E-32
   6.700000     -4.7511483E-32
   6.710000     -3.2463498E-32
   6.720000     -1.6081190E-32
   6.730000      1.6688032E-33
   6.740000      2.0816772E-32
   6.750000      4.1389600E-32
   6.760000      6.3410256E-32
   6.770000      8.6897503E-32
   6.780000      1.1186543E-31
   6.790000      1.3832297E-31
   6.800000      1.6627351E-31
   6.810000      1.9571431E-31
   6.820000      2.2663602E-31
   6.830000      2.5902227E-31
   6.840000      2.9284905E-31
   6.850000      3.2808428E-31
   6.860000      3.6468725E-31
   6.870000      4.0260799E-31
   6.880000      4.4178698E-31
   6.890000      4.8215445E-31
   6.900000      5.2362993E-31
   6.910000      5.6612203E-31
   6.920000      6.0952749E-31
   6.930000      6.5373120E-31
   6.940000      6.9860560E-31
   6.950000      7.4401034E-31
   6.960000      7.8979190E-31
   6.970000      8.3578354E-31
   6.980000      8.8180461E-31
   6.990000      9.2766083E-31
   7.000000      9.7314344E-31
   7.010000      1.0180297E-30
   7.020000      1.0620824E-30
   7.030000      1.1050499E-30
   7.040000      1.1466660E-30
   7.050000      1.1866499E-30
   7.060000      1.2247068E-30