  -2.600000      0.0000000E+00
  -2.590000      0.0000000E+00
  -2.580000      0.0000000E+00
  -2.570000      0.0000000E+00
  -2.560000      0.0000000E+00
  -2.550000      0.0000000E+00
  -2.540000      0.0000000E+00
  -2.530000      0.0000000E+00
  -2.520000      0.0000000E+00
  -2.510000      0.0000000E+00
  -2.500000      0.0000000E+00
  -2.490000      0.0000000E+00
  -2.480000      0.0000000E+00
  -2.470000      0.0000000E+00
  -2.460000      0.0000000E+00
  -2.450000      0.0000000E+00
  -2.440000      0.0000000E+00
  -2.430000      0.0000000E+00
  -2.420000      0.0000000E+00
  -2.410000      0.0000000E+00
  -2.400000      0.0000000E+00
  -2.390000      0.0000000E+00
  -2.380000      0.0000000E+00
  -2.370000      0.0000000E+00
  -2.360000      0.0000000E+00
  -2.350000      0.0000000E+00
  -2.340000      0.0000000E+00
  -2.330000      0.0000000E+00
  -2.320000      0.0000000E+00
  -2.310000      0.0000000E+00
  -2.300000      0.0000000E+00
  -2.290000      0.0000000E+00
  -2.280000      0.0000000E+00
  -2.270000      0.0000000E+00
  -2.260000      0.0000000E+00
  -2.250000      0.0000000E+00
  -2.240000      0.0000000E+00
  -2.230000      0.0000000E+00
  -2.220000      0.0000000E+00
  -2.210000      0.0000000E+00
  -2.200000      0.0000000E+00
  -2.190000      0.0000000E+00
  -2.180000      0.0000000E+00
  -2.170000      0.0000000E+00
  -2.160000      0.0000000E+00
  -2.150000      0.0000000E+00
  -2.140000      0.0000000E+00
  -2.130000      0.0000000E+00
  -2.120000      0.0000000E+00
  -2.110000      0.0000000E+00
  -2.100000      0.0000000E+00
  -2.090000      0.0000000E+00
  -2.080000      0.0000000E+00
  -2.070000      0.0000000E+00
  -2.060000      0.0000000E+00
  -2.050000      0.0000000E+00
  -2.040000      0.0000000E+00
  -2.030000      0.0000000E+00
  -2.020000      0.0000000E+00
  -2.010000      0.0000000E+00
  -2.000000      0.0000000E+00
  -1.990000      0.0000000E+00
  -1.980000      0.0000000E+00
  -1.970000      0.0000000E+00
  -1.960000      0.0000000E+00
  -1.950000      0.0000000E+00
  -1.940000      0.0000000E+00
  -1.930000      0.0000000E+00
  -1.920000      0.0000000E+00
  -1.910000      0.0000000E+00
  -1.900000      0.0000000E+00
  -1.890000      0.0000000E+00
  -1.880000      0.0000000E+00
  -1.870000      0.0000000E+00
  -1.860000      0.0000000E+00
  -1.850000      0.0000000E+00
  -1.840000      0.0000000E+00
  -1.830000      0.0000000E+00
  -1.820000      0.0000000E+00
  -1.810000      0.0000000E+00
  -1.800000      0.0000000E+00
  -1.790000      0.0000000E+00
  -1.780000      0.0000000E+00
  -1.770000      0.0000000E+00
  -1.760000      0.0000000E+00
  -1.750000      0.0000000E+00
  -1.740000      0.0000000E+00
  -1.730000      0.0000000E+00
  -1.720000      0.0000000E+00
  -1.710000      0.0000000E+00
  -1.700000      0.0000000E+00
  -1.690000      0.0000000E+00
  -1.680000      0.0000000E+00
  -1.670000      0.0000000E+00
  -1.660000      0.0000000E+00
  -1.650000      0.0000000E+00
  -1.640000      0.0000000E+00
  -1.630000      0.0000000E+00
  -1.620000      0.0000000E+00
  -1.610000      0.0000000E+00
  -1.600000      0.0000000E+00
  -1.590000      0.0000000E+00
  -1.580000      0.0000000E+00
  -1.570000      0.0000000E+00
  -1.560000      0.0000000E+00
  -1.550000      0.0000000E+00
  -1.540000      0.0000000E+00
  -1.530000      0.0000000E+00
  -1.520000      0.0000000E+00
  -1.510000      0.0000000E+00
  -1.500000      0.0000000E+00
  -1.490000      0.0000000E+00
  -1.480000      0.0000000E+00
  -1.470000      0.0000000E+00
  -1.460000      0.0000000E+00
  -1.450000      0.0000000E+00
  -1.440000      0.0000000E+00
  -1.430000      0.0000000E+00
  -1.420000      0.0000000E+00
  -1.410000      0.0000000E+00
  -1.400000      0.0000000E+00
  -1.390000      0.0000000E+00
  -1.380000      0.0000000E+00
  -1.370000      0.0000000E+00
  -1.360000      0.0000000E+00
  -1.350000      0.0000000E+00
  -1.340000      0.0000000E+00
  -1.330000      0.0000000E+00
  -1.320000      0.0000000E+00
  -1.310000      0.0000000E+00
  -1.300000      0.0000000E+00
  -1.290000      0.0000000E+00
  -1.280000      0.0000000E+00
  -1.270000      0.0000000E+00
  -1.260000      0.0000000E+00
  -1.250000      0.0000000E+00
  -1.240000      0.0000000E+00
  -1.230000      0.0000000E+00
  -1.220000      0.0000000E+00
  -1.210000      0.0000000E+00
  -1.200000      0.0000000E+00
  -1.190000      0.0000000E+00
  -1.180000      0.0000000E+00
  -1.170000      0.0000000E+00
  -1.160000      0.0000000E+00
  -1.150000      0.0000000E+00
  -1.140000      0.0000000E+00
  -1.130000      0.0000000E+00
  -1.120000      0.0000000E+00
  -1.110000      0.0000000E+00
  -1.100000      0.0000000E+00
  -1.090000      0.0000000E+00
  -1.080000      0.0000000E+00
  -1.070000      0.0000000E+00
  -1.060000      0.0000000E+00
  -1.050000      0.0000000E+00
  -1.040000      0.0000000E+00
  -1.030000      0.0000000E+00
  -1.020000      0.0000000E+00
  -1.010000      0.0000000E+00
  -1.000000      0.0000000E+00
 -0.9900000      0.0000000E+00
 -0.9800000      0.0000000E+00
 -0.9700000      0.0000000E+00
 -0.9600000      0.0000000E+00
 -0.9500000      0.0000000E+00
 -0.9400000      0.0000000E+00
 -0.9300000      0.0000000E+00
 -0.9200000      0.0000000E+00
 -0.9100000      0.0000000E+00
 -0.9000000      0.0000000E+00
 -0.8900000      0.0000000E+00
 -0.8800000      0.0000000E+00
 -0.8700000      0.0000000E+00
 -0.8600000      0.0000000E+00
 -0.8500000      0.0000000E+00
 -0.8400000      0.0000000E+00
 -0.8300000      0.0000000E+00
 -0.8200000      0.0000000E+00
 -0.8100000      0.0000000E+00
 -0.8000000      0.0000000E+00
 -0.7900000      0.0000000E+00
 -0.7800000      0.0000000E+00
 -0.7700000      0.0000000E+00
 -0.7600000      0.0000000E+00
 -0.7500000      0.0000000E+00
 -0.7400000      0.0000000E+00
 -0.7300000      0.0000000E+00
 -0.7200000      0.0000000E+00
 -0.7100000      0.0000000E+00
 -0.7000000      0.0000000E+00
 -0.6900000      0.0000000E+00
 -0.6800000      0.0000000E+00
 -0.6700000      0.0000000E+00
 -0.6600000      0.0000000E+00
 -0.6500000      0.0000000E+00
 -0.6400000      0.0000000E+00
 -0.6300000      0.0000000E+00
 -0.6200000      0.0000000E+00
 -0.6100000      0.0000000E+00
 -0.6000000      0.0000000E+00
 -0.5900000      0.0000000E+00
 -0.5800000      0.0000000E+00
 -0.5700000      0.0000000E+00
 -0.5600000      0.0000000E+00
 -0.5500000      0.0000000E+00
 -0.5400000      0.0000000E+00
 -0.5300000      0.0000000E+00
 -0.5200000      0.0000000E+00
 -0.5100000      0.0000000E+00
 -0.5000000      0.0000000E+00
 -0.4900000      0.0000000E+00
 -0.4800000      0.0000000E+00
 -0.4700000      0.0000000E+00
 -0.4600000      0.0000000E+00
 -0.4500000      0.0000000E+00
 -0.4400000      0.0000000E+00
 -0.4300000      0.0000000E+00
 -0.4200000      0.0000000E+00
 -0.4100000      0.0000000E+00
 -0.4000000      0.0000000E+00
 -0.3900000      0.0000000E+00
 -0.3800000      0.0000000E+00
 -0.3700000      0.0000000E+00
 -0.3600000      0.0000000E+00
 -0.3500000      0.0000000E+00
 -0.3400000      0.0000000E+00
 -0.3300000      0.0000000E+00
 -0.3200000      0.0000000E+00
 -0.3100000      0.0000000E+00
 -0.3000000      0.0000000E+00
 -0.2900000      0.0000000E+00
 -0.2800000      0.0000000E+00
 -0.2700000      0.0000000E+00
 -0.2600000      0.0000000E+00
 -0.2500000      0.0000000E+00
 -0.2400000      0.0000000E+00
 -0.2300000      0.0000000E+00
 -0.2200000      0.0000000E+00
 -0.2100000      0.0000000E+00
 -0.2000000      0.0000000E+00
 -0.1900000      0.0000000E+00
 -0.1800000      0.0000000E+00
 -0.1700000      0.0000000E+00
 -0.1600000      0.0000000E+00
 -0.1500000      0.0000000E+00
 -0.1400000      0.0000000E+00
 -0.1300000      0.0000000E+00
 -0.1200000      0.0000000E+00
 -0.1100000      0.0000000E+00
 -0.1000000      0.0000000E+00
 -9.0000004E-02  0.0000000E+00
 -7.9999998E-02  0.0000000E+00
 -7.0000000E-02  0.0000000E+00
 -5.9999999E-02  0.0000000E+00
 -5.0000001E-02  0.0000000E+00
 -3.9999999E-02  0.0000000E+00
 -2.9999999E-02  0.0000000E+00
 -2.0000000E-02  0.0000000E+00
 -9.9999998E-03  0.0000000E+00
 -3.4694470E-17  0.0000000E+00
  9.9999998E-03  0.0000000E+00
  2.0000000E-02  0.0000000E+00
  2.9999999E-02  0.0000000E+00
  3.9999999E-02  0.0000000E+00
  5.0000001E-02  0.0000000E+00
  5.9999999E-02  0.0000000E+00
  7.0000000E-02  0.0000000E+00
  7.9999998E-02  0.0000000E+00
  9.0000004E-02  0.0000000E+00
  0.1000000      0.0000000E+00
  0.1100000      0.0000000E+00
  0.1200000      0.0000000E+00
  0.1300000      0.0000000E+00
  0.1400000      0.0000000E+00
  0.1500000      0.0000000E+00
  0.1600000      0.0000000E+00
  0.1700000      0.0000000E+00
  0.1800000      0.0000000E+00
  0.1900000      0.0000000E+00
  0.2000000      0.0000000E+00
  0.2100000      0.0000000E+00
  0.2200000      0.0000000E+00
  0.2300000      0.0000000E+00
  0.2400000      0.0000000E+00
  0.2500000      0.0000000E+00
  0.2600000      0.0000000E+00
  0.2700000      0.0000000E+00
  0.2800000      0.0000000E+00
  0.2900000      0.0000000E+00
  0.3000000      0.0000000E+00
  0.3100000      0.0000000E+00
  0.3200000      0.0000000E+00
  0.3300000      0.0000000E+00
  0.3400000      0.0000000E+00
  0.3500000      0.0000000E+00
  0.3600000      0.0000000E+00
  0.3700000      0.0000000E+00
  0.3800000      0.0000000E+00
  0.3900000      0.0000000E+00
  0.4000000      0.0000000E+00
  0.4100000      0.0000000E+00
  0.4200000      0.0000000E+00
  0.4300000      0.0000000E+00
  0.4400000      0.0000000E+00
  0.4500000      0.0000000E+00
  0.4600000      0.0000000E+00
  0.4700000      0.0000000E+00
  0.4800000      0.0000000E+00
  0.4900000      0.0000000E+00
  0.5000000      0.0000000E+00
  0.5100000      0.0000000E+00
  0.5200000      0.0000000E+00
  0.5300000      0.0000000E+00
  0.5400000      0.0000000E+00
  0.5500000      0.0000000E+00
  0.5600000      0.0000000E+00
  0.5700000      0.0000000E+00
  0.5800000      0.0000000E+00
  0.5900000      0.0000000E+00
  0.6000000      0.0000000E+00
  0.6100000      0.0000000E+00
  0.6200000      0.0000000E+00
  0.6300000      0.0000000E+00
  0.6400000      0.0000000E+00
  0.6500000      0.0000000E+00
  0.6600000      0.0000000E+00
  0.6700000      0.0000000E+00
  0.6800000      0.0000000E+00
  0.6900000      0.0000000E+00
  0.7000000      0.0000000E+00
  0.7100000      0.0000000E+00
  0.7200000      0.0000000E+00
  0.7300000      0.0000000E+00
  0.7400000      0.0000000E+00
  0.7500000      0.0000000E+00
  0.7600000      0.0000000E+00
  0.7700000      0.0000000E+00
  0.7800000      0.0000000E+00
  0.7900000      0.0000000E+00
  0.8000000      0.0000000E+00
  0.8100000      0.0000000E+00
  0.8200000      0.0000000E+00
  0.8300000      0.0000000E+00
  0.8400000      0.0000000E+00
  0.8500000      0.0000000E+00
  0.8600000      0.0000000E+00
  0.8700000      0.0000000E+00
  0.8800000      0.0000000E+00
  0.8900000      0.0000000E+00
  0.9000000      0.0000000E+00
  0.9100000      0.0000000E+00
  0.9200000      0.0000000E+00
  0.9300000      0.0000000E+00
  0.9400000      0.0000000E+00
  0.9500000      0.0000000E+00
  0.9600000      0.0000000E+00
  0.9700000      0.0000000E+00
  0.9800000      0.0000000E+00
  0.9900000      0.0000000E+00
   1.000000      0.0000000E+00
   1.010000      0.0000000E+00
   1.020000      0.0000000E+00
   1.030000      0.0000000E+00
   1.040000      0.0000000E+00
   1.050000      0.0000000E+00
   1.060000      0.0000000E+00
   1.070000      0.0000000E+00
   1.080000      0.0000000E+00
   1.090000      0.0000000E+00
   1.100000      0.0000000E+00
   1.110000      0.0000000E+00
   1.120000      0.0000000E+00
   1.130000      0.0000000E+00
   1.140000      0.0000000E+00
   1.150000      0.0000000E+00
   1.160000      0.0000000E+00
   1.170000      0.0000000E+00
   1.180000      0.0000000E+00
   1.190000      0.0000000E+00
   1.200000      0.0000000E+00
   1.210000      0.0000000E+00
   1.220000      0.0000000E+00
   1.230000      0.0000000E+00
   1.240000      0.0000000E+00
   1.250000      0.0000000E+00
   1.260000      0.0000000E+00
   1.270000      0.0000000E+00
   1.280000      0.0000000E+00
   1.290000      0.0000000E+00
   1.300000      0.0000000E+00
   1.310000      0.0000000E+00
   1.320000      0.0000000E+00
   1.330000      0.0000000E+00
   1.340000      0.0000000E+00
   1.350000      0.0000000E+00
   1.360000      0.0000000E+00
   1.370000      0.0000000E+00
   1.380000      0.0000000E+00
   1.390000      0.0000000E+00
   1.400000      0.0000000E+00
   1.410000      0.0000000E+00
   1.420000      0.0000000E+00
   1.430000      0.0000000E+00
   1.440000      0.0000000E+00
   1.450000      0.0000000E+00
   1.460000      0.0000000E+00
   1.470000      0.0000000E+00
   1.480000      0.0000000E+00
   1.490000      0.0000000E+00
   1.500000      0.0000000E+00
   1.510000      0.0000000E+00
   1.520000      0.0000000E+00
   1.530000      0.0000000E+00
   1.540000      0.0000000E+00
   1.550000      0.0000000E+00
   1.560000      0.0000000E+00
   1.570000      0.0000000E+00
   1.580000      0.0000000E+00
   1.590000      0.0000000E+00
   1.600000      0.0000000E+00
   1.610000      0.0000000E+00
   1.620000      0.0000000E+00
   1.630000      0.0000000E+00
   1.640000      0.0000000E+00
   1.650000      0.0000000E+00
   1.660000      0.0000000E+00
   1.670000      0.0000000E+00
   1.680000      0.0000000E+00
   1.690000      0.0000000E+00
   1.700000      0.0000000E+00
   1.710000      0.0000000E+00
   1.720000      0.0000000E+00
   1.730000      0.0000000E+00
   1.740000      0.0000000E+00
   1.750000      0.0000000E+00
   1.760000      0.0000000E+00
   1.770000      0.0000000E+00
   1.780000      0.0000000E+00
   1.790000      0.0000000E+00
   1.800000      0.0000000E+00
   1.810000      0.0000000E+00
   1.820000      0.0000000E+00
   1.830000      0.0000000E+00
   1.840000      0.0000000E+00
   1.850000      0.0000000E+00
   1.860000      0.0000000E+00
   1.870000      0.0000000E+00
   1.880000      0.0000000E+00
   1.890000      0.0000000E+00
   1.900000      0.0000000E+00
   1.910000      0.0000000E+00
   1.920000      0.0000000E+00
   1.930000      0.0000000E+00
   1.940000      0.0000000E+00
   1.950000      0.0000000E+00
   1.960000      0.0000000E+00
   1.970000      0.0000000E+00
   1.980000      0.0000000E+00
   1.990000      0.0000000E+00
   2.000000      0.0000000E+00
   2.010000      0.0000000E+00
   2.020000      0.0000000E+00
   2.030000      0.0000000E+00
   2.040000      0.0000000E+00
   2.050000      0.0000000E+00
   2.060000      0.0000000E+00
   2.070000      0.0000000E+00
   2.080000      0.0000000E+00
   2.090000      0.0000000E+00
   2.100000      0.0000000E+00
   2.110000      0.0000000E+00
   2.120000      0.0000000E+00
   2.130000      0.0000000E+00
   2.140000      0.0000000E+00
   2.150000      0.0000000E+00
   2.160000      0.0000000E+00
   2.170000      0.0000000E+00
   2.180000      0.0000000E+00
   2.190000      0.0000000E+00
   2.200000      0.0000000E+00
   2.210000      0.0000000E+00
   2.220000      0.0000000E+00
   2.230000      0.0000000E+00
   2.240000      0.0000000E+00
   2.250000      0.0000000E+00
   2.260000      0.0000000E+00
   2.270000      0.0000000E+00
   2.280000      0.0000000E+00
   2.290000      0.0000000E+00
   2.300000      0.0000000E+00
   2.310000      0.0000000E+00
   2.320000      0.0000000E+00
   2.330000      1.1919965E-38
   2.340000      1.3159583E-38
   2.350000      1.4497856E-38
   2.360000      1.5931787E-38
   2.370000      1.7307282E-38
   2.380000      1.8552288E-38
   2.390000      1.9913512E-38
   2.400000      2.1482180E-38
   2.410000      2.3262314E-38
   2.420000      2.5155835E-38
   2.430000      2.7032782E-38
   2.440000      2.8883934E-38
   2.450000      3.0563841E-38
   2.460000      3.2021988E-38
   2.470000      3.3467150E-38
   2.480000      3.4278521E-38
   2.490000      3.5281299E-38
   2.500000      4.0068857E-38
   2.510000      4.7981889E-38
   2.520000      5.6233782E-38
   2.530000      6.5223633E-38
   2.540000      7.5161894E-38
   2.550000      8.5799678E-38
   2.560000      9.0764686E-38
   2.570000      8.9560567E-38
   2.580000      8.7895981E-38
   2.590000      8.6509379E-38
   2.600000      8.7017165E-38
   2.610000      8.8775828E-38
   2.620000      9.0400303E-38
   2.630000      9.0270235E-38
   2.640000      8.0997243E-38
   2.650000      6.3411255E-38
   2.660000      4.3851250E-38
   2.670000      2.4891464E-38
   2.680000      0.0000000E+00
   2.690000     -1.1905051E-38
   2.700000     -2.9396988E-38
   2.710000     -4.5769412E-38
   2.720000     -5.8743037E-38
   2.730000     -6.7292852E-38
   2.740000     -6.7829477E-38
   2.750000     -6.2657452E-38
   2.760000     -5.7413137E-38
   2.770000     -5.2246051E-38
   2.780000     -5.4947385E-38
   2.790000     -7.0316636E-38
   2.800000     -8.9569462E-38
   2.810000     -1.0937351E-37
   2.820000     -1.2931619E-37
   2.830000     -1.4600580E-37
   2.840000     -1.6486512E-37
   2.850000     -1.8958936E-37
   2.860000     -2.1503259E-37
   2.870000     -2.3322411E-37
   2.880000     -2.4710759E-37
   2.890000     -2.5957633E-37
   2.900000     -2.6209523E-37
   2.910000     -2.5602205E-37
   2.920000     -2.4009942E-37
   2.930000     -2.1547273E-37
   2.940000     -1.8763113E-37
   2.950000     -1.4653143E-37
   2.960000     -9.1125649E-38
   2.970000     -3.1565487E-38
   2.980000      3.2492252E-38
   2.990000      1.0379917E-37
   3.000000      1.8303396E-37
   3.010000      2.5556366E-37
   3.020000      3.1967021E-37
   3.030000      3.8313531E-37
   3.040000      4.5566432E-37
   3.050000      5.5081639E-37
   3.060000      6.5843015E-37
   3.070000      7.7252495E-37
   3.080000      8.9074369E-37
   3.090000      1.0085059E-36
   3.100000      1.2065174E-36
   3.110000      1.4637479E-36
   3.120000      1.7024301E-36
   3.130000      1.9699003E-36
   3.140000      2.3755271E-36
   3.150000      2.9153788E-36
   3.160000      3.4871595E-36
   3.170000      4.0897213E-36
   3.180000      4.7494807E-36
   3.190000      5.2924129E-36
   3.200000      5.5519684E-36
   3.210000      5.6456094E-36
   3.220000      5.6769023E-36
   3.230000      5.5989343E-36
   3.240000      5.3887788E-36
   3.250000      4.8075531E-36
   3.260000      3.8516629E-36
   3.270000      2.8291611E-36
   3.280000      1.7751819E-36
   3.290000      7.6403438E-37
   3.300000     -7.4954076E-38
   3.310000     -7.2313126E-37
   3.320000     -1.3006000E-36
   3.330000     -1.9067809E-36
   3.340000     -2.4028128E-36
   3.350000     -2.8413445E-36
   3.360000     -3.4191840E-36
   3.370000     -4.0943808E-36
   3.380000     -4.9436683E-36
   3.390000     -6.1299261E-36
   3.400000     -7.5994748E-36
   3.410000     -9.1837354E-36
   3.420000     -1.0928871E-35
   3.430000     -1.3069115E-35
   3.440000     -1.5668992E-35
   3.450000     -1.8617272E-35
   3.460000     -2.1779769E-35
   3.470000     -2.5223474E-35
   3.480000     -2.8677706E-35
   3.490000     -3.2016021E-35
   3.500000     -3.5645480E-35
   3.510000     -3.9455224E-35
   3.520000     -4.3390478E-35
   3.530000     -4.7622258E-35
   3.540000     -5.2059144E-35
   3.550000     -5.6386771E-35
   3.560000     -6.0265718E-35
   3.570000     -6.3756449E-35
   3.580000     -6.6977768E-35
   3.590000     -6.9900777E-35
   3.600000     -7.2530022E-35
   3.610000     -7.4801200E-35
   3.620000     -7.6793955E-35
   3.630000     -7.8571850E-35
   3.640000     -7.9947202E-35
   3.650000     -8.0742910E-35
   3.660000     -8.1240756E-35
   3.670000     -8.1506362E-35
   3.680000     -8.1214933E-35
   3.690000     -8.0389120E-35
   3.700000     -7.8970646E-35
   3.710000     -7.6914805E-35
   3.720000     -7.4331771E-35
   3.730000     -7.0864551E-35
   3.740000     -6.6672507E-35
   3.750000     -6.1552799E-35
   3.760000     -5.5290508E-35
   3.770000     -4.8155578E-35
   3.780000     -3.9501940E-35
   3.790000     -2.9090779E-35
   3.800000     -1.7330988E-35
   3.810000     -4.3426093E-36
   3.820000      9.0644124E-36
   3.830000      2.2790885E-35
   3.840000      3.7901465E-35
   3.850000      5.4847459E-35
   3.860000      7.3296923E-35
   3.870000      9.2396450E-35
   3.880000      1.1195078E-34
   3.890000      1.3250540E-34
   3.900000      1.5434584E-34
   3.910000      1.7741740E-34
   3.920000      2.0341817E-34
   3.930000      2.3210540E-34
   3.940000      2.6211515E-34
   3.950000      2.9387457E-34
   3.960000      3.2558087E-34
   3.970000      3.5685178E-34
   3.980000      3.8875265E-34
   3.990000      4.2010033E-34
   4.000000      4.4971599E-34
   4.010000      4.8049475E-34
   4.020000      5.1360673E-34
   4.030000      5.4665878E-34
   4.040000      5.8351530E-34
   4.050000      6.2385781E-34
   4.060000      6.6286948E-34
   4.070000      7.0051253E-34
   4.080000      7.3693293E-34
   4.090000      7.6785353E-34
   4.100000      7.8715987E-34
   4.110000      7.9620595E-34
   4.120000      7.9944012E-34
   4.130000      7.9694100E-34
   4.140000      7.8755247E-34
   4.150000      7.7121494E-34
   4.160000      7.4429028E-34
   4.170000      7.0706945E-34
   4.180000      6.6359324E-34
   4.190000      6.1445496E-34
   4.200000      5.5603776E-34
   4.210000      4.8825278E-34
   4.220000      4.1567161E-34
   4.230000      3.3857743E-34
   4.240000      2.5382140E-34
   4.250000      1.5997041E-34
   4.260000      5.9635664E-35
   4.270000     -4.5407705E-35
   4.280000     -1.5292247E-34
   4.290000     -2.6201714E-34
   4.300000     -3.7752746E-34
   4.310000     -5.0556083E-34
   4.320000     -6.4329351E-34
   4.330000     -7.8874688E-34
   4.340000     -9.4576703E-34
   4.350000     -1.1131042E-33
   4.360000     -1.2940368E-33
   4.370000     -1.4912163E-33
   4.380000     -1.6996194E-33
   4.390000     -1.9173510E-33
   4.400000     -2.1421107E-33
   4.410000     -2.3736598E-33
   4.420000     -2.6137319E-33
   4.430000     -2.8601785E-33
   4.440000     -3.1107302E-33
   4.450000     -3.3626698E-33
   4.460000     -3.6131041E-33
   4.470000     -3.8599594E-33
   4.480000     -4.0986344E-33
   4.490000     -4.3289692E-33
   4.500000     -4.5521371E-33
   4.510000     -4.7642441E-33
   4.520000     -4.9576559E-33
   4.530000     -5.1253578E-33
   4.540000     -5.2706015E-33
   4.550000     -5.3937742E-33
   4.560000     -5.4900248E-33
   4.570000     -5.5542303E-33
   4.580000     -5.5830218E-33
   4.590000     -5.5753763E-33
   4.600000     -5.5282823E-33
   4.610000     -5.4392394E-33
   4.620000     -5.3057954E-33
   4.630000     -5.1254599E-33
   4.640000     -4.8951648E-33
   4.650000     -4.6124738E-33
   4.660000     -4.2745926E-33
   4.670000     -3.8779257E-33
   4.680000     -3.4195538E-33
   4.690000     -2.8958000E-33
   4.700000     -2.3035647E-33
   4.710000     -1.6406924E-33
   4.720000     -9.0395001E-34
   4.730000     -9.2785592E-35
   4.740000      7.9746106E-34
   4.750000      1.7712376E-33
   4.760000      2.8266881E-33
   4.770000      3.9652488E-33
   4.780000      5.1933267E-33
   4.790000      6.5124701E-33
   4.800000      7.9179242E-33
   4.810000      9.4081381E-33
   4.820000      1.0983287E-32
   4.830000      1.2640223E-32
   4.840000      1.4373132E-32
   4.850000      1.6178446E-32
   4.860000      1.8052227E-32
   4.870000      1.9988102E-32
   4.880000      2.1979512E-32
   4.890000      2.4018084E-32
   4.900000      2.6094029E-32
   4.910000      2.8197544E-32
   4.920000      3.0318009E-32
   4.930000      3.2443553E-32
   4.940000      3.4560753E-32
   4.950000      3.6655094E-32
   4.960000      3.8711521E-32
   4.970000      4.0714399E-32
   4.980000      4.2646115E-32
   4.990000      4.4487389E-32
   5.000000      4.6220264E-32
   5.010000      4.7823692E-32
   5.020000      4.9274719E-32
   5.030000      5.0551564E-32
   5.040000      5.1630527E-32
   5.050000      5.2486857E-32
   5.060000      5.3094670E-32
   5.070000      5.3427147E-32
   5.080000      5.3456517E-32
   5.090000      5.3154044E-32
   5.100000      5.2490119E-32
   5.110000      5.1434478E-32
   5.120000      4.9956188E-32
   5.130000      4.8023817E-32
   5.140000      4.5605598E-32
   5.150000      4.2669352E-32
   5.160000      3.9183650E-32
   5.170000      3.5117503E-32
   5.180000      3.0439362E-32
   5.190000      2.5119056E-32
   5.200000      1.9127889E-32
   5.210000      1.2438223E-32
   5.220000      5.0241374E-33
   5.230000     -3.1381890E-33
   5.240000     -1.2070267E-32
   5.250000     -2.1791004E-32
   5.260000     -3.2316317E-32
   5.270000     -4.3658936E-32
   5.280000     -5.5828129E-32
   5.290000     -6.8828921E-32
   5.300000     -8.2662097E-32
   5.310000     -9.7324208E-32
   5.320000     -1.1280674E-31
   5.330000     -1.2909588E-31
   5.340000     -1.4617221E-31
   5.350000     -1.6401029E-31
   5.360000     -1.8257834E-31
   5.370000     -2.0183781E-31
   5.380000     -2.2174309E-31
   5.390000     -2.4224092E-31
   5.400000     -2.6327013E-31
   5.410000     -2.8476132E-31
   5.420000     -3.0663638E-31
   5.430000     -3.2880813E-31
   5.440000     -3.5118000E-31
   5.450000     -3.7364546E-31
   5.460000     -3.9608799E-31
   5.470000     -4.1838063E-31
   5.480000     -4.4038565E-31
   5.490000     -4.6195447E-31
   5.500000     -4.8292707E-31
   5.510000     -5.0313236E-31
   5.520000     -5.2238743E-31
   5.530000     -5.4049865E-31
   5.540000     -5.5726101E-31
   5.550000     -5.7245917E-31
   5.560000     -5.8586333E-31
   5.570000     -5.9723294E-31
   5.580000     -6.0632060E-31
   5.590000     -6.1286716E-31
   5.600000     -6.1660392E-31
   5.610000     -6.1725326E-31
   5.620000     -6.1452959E-31
   5.630000     -6.0813984E-31
   5.640000     -5.9778458E-31
   5.650000     -5.8315884E-31
   5.660000     -5.6395329E-31
   5.670000     -5.3985533E-31
   5.680000     -5.1055030E-31
   5.690000     -4.7572318E-31
   5.700000     -4.3505972E-31
   5.710000     -3.8824789E-31
   5.720000     -3.3497983E-31
   5.730000     -2.7495356E-31
   5.740000     -2.0787506E-31
   5.750000     -1.3346016E-31
   5.760000     -5.1436917E-32
   5.770000      3.8452280E-32
   5.780000      1.3644788E-31
   5.790000      2.4277066E-31
   5.800000      3.5761900E-31
   5.810000      4.8116590E-31
   5.820000      6.1355595E-31
   5.830000      7.5490195E-31
   5.840000      9.0528187E-31
   5.850000      1.0647355E-30
   5.860000      1.2332603E-30
   5.870000      1.4108083E-30
   5.880000      1.5972826E-30
   5.890000      1.7925333E-30
   5.900000      1.9963533E-30
   5.910000      2.2084753E-30
   5.920000      2.4285676E-30
   5.930000      2.6562298E-30
   5.940000      2.8909896E-30
   5.950000      3.1322988E-30
   5.960000      3.3795297E-30
   5.970000      3.6319717E-30
   5.980000      3.8888268E-30
   5.990000      4.1492077E-30
   6.000000      4.4121336E-30
   6.010000      4.6765277E-30
   6.020000      4.9412125E-30
   6.030000      5.2049107E-30
   6.040000      5.4662398E-30
   6.050000      5.7237103E-30
   6.060000      5.9757254E-30
   6.070000      6.2205777E-30
   6.080000      6.4564477E-30
   6.090000      6.6814061E-30
   6.100000      6.8934081E-30
   6.110000      7.0902983E-30
   6.120000      7.2698078E-30
   6.130000      7.4295584E-30
   6.140000      7.5670608E-30
   6.150000      7.6797186E-30
   6.160000      7.7648312E-30
   6.170000      7.8195968E-30
   6.180000      7.8411176E-30
   6.190000      7.8264060E-30
   6.200000      7.7723897E-30
   6.210000      7.6759187E-30
   6.220000      7.5337730E-30
   6.230000      7.3426734E-30
   6.240000      7.0992915E-30
   6.250000      6.8002578E-30
   6.260000      6.4421777E-30
   6.270000      6.0216449E-30
   6.280000      5.5352521E-30
   6.290000      4.9796104E-30
   6.300000      4.3513652E-30
   6.310000      3.6472140E-30
   6.320000      2.8639261E-30
   6.330000      1.9983601E-30
   6.340000      1.0474897E-30
   6.350000      8.4238981E-33
   6.360000     -1.1215681E-30
   6.370000     -2.3450326E-30
   6.380000     -3.6643055E-30
   6.390000     -5.0814830E-30
   6.400000     -6.5983955E-30
   6.410000     -8.2165761E-30
   6.420000     -9.9372305E-30
   6.430000     -1.1761205E-29
   6.440000     -1.3688953E-29
   6.450000     -1.5720505E-29
   6.460000     -1.7855429E-29
   6.470000     -2.0092794E-29
   6.480000     -2.2431138E-29
   6.490000     -2.4868432E-29
   6.500000     -2.7402038E-29
   6.510000     -3.0028672E-29
   6.520000     -3.2744369E-29
   6.530000     -3.5544436E-29
   6.540000     -3.8423431E-29
   6.550000     -4.1375105E-29
   6.560000     -4.4392372E-29
   6.570000     -4.7467279E-29
   6.580000     -5.0590966E-29
   6.590000     -5.3753620E-29
   6.600000     -5.6944476E-29
   6.610000     -6.0151727E-29
   6.620000     -6.3362554E-29
   6.630000     -6.6563058E-29
   6.640000     -6.9738266E-29
   6.650000     -7.2872085E-29
   6.660000     -7.5947278E-29
   6.670000     -7.8945481E-29
   6.680000     -8.1847154E-29
   6.690000     -8.4631591E-29
   6.700000     -8.7276928E-29
   6.710000     -8.9760120E-29
   6.720000     -9.2056948E-29
   6.730000     -9.4142044E-29
   6.740000     -9.5988908E-29
   6.750000     -9.7569910E-29
   6.760000     -9.8856329E-29
   6.770000     -9.9818403E-29
   6.780000     -1.0042536E-28
   6.790000     -1.0064544E-28
   6.800000     -1.0044601E-28
   6.810000     -9.9793589E-29
   6.820000     -9.8653908E-29
   6.830000     -9.6992053E-29
   6.840000     -9.4772503E-29
   6.850000     -9.1959249E-29
   6.860000     -8.8515921E-29
   6.870000     -8.4405902E-29
   6.880000     -7.9592449E-29
   6.890000     -7.4038874E-29
   6.900000     -6.7708655E-29
   6.910000     -6.0565634E-29
   6.920000     -5.2574198E-29
   6.930000     -4.3699459E-29
   6.940000     -3.3907459E-29
   6.950000     -2.3165376E-29
   6.960000     -1.1441772E-29
   6.970000      1.2931623E-30
   6.980000      1.5067390E-29
   6.990000      2.9906731E-29
   7.000000      4.5834629E-29
   7.010000      6.2871833E-29
   7.020000      8.1036133E-29
   7.030000      1.0034202E-28
   7.040000      1.2080043E-28
   7.050000      1.4241832E-28
   7.060000      1.6519848E-28