  -2.600000      0.0000000E+00
  -2.590000      0.0000000E+00
  -2.580000      0.0000000E+00
  -2.570000      0.0000000E+00
  -2.560000      0.0000000E+00
  -2.550000      0.0000000E+00
  -2.540000      0.0000000E+00
  -2.530000      0.0000000E+00
  -2.520000      0.0000000E+00
  -2.510000      0.0000000E+00
  -2.500000      0.0000000E+00
  -2.490000      0.0000000E+00
  -2.480000      0.0000000E+00
  -2.470000      0.0000000E+00
  -2.460000      0.0000000E+00
  -2.450000      0.0000000E+00
  -2.440000      0.0000000E+00
  -2.430000      0.0000000E+00
  -2.420000      0.0000000E+00
  -2.410000      0.0000000E+00
  -2.400000      0.0000000E+00
  -2.390000      0.0000000E+00
  -2.380000      0.0000000E+00
  -2.370000      0.0000000E+00
  -2.360000      0.0000000E+00
  -2.350000      0.0000000E+00
  -2.340000      0.0000000E+00
  -2.330000      0.0000000E+00
  -2.320000      0.0000000E+00
  -2.310000      0.0000000E+00
  -2.300000      0.0000000E+00
  -2.290000      0.0000000E+00
  -2.280000      0.0000000E+00
  -2.270000      0.0000000E+00
  -2.260000      0.0000000E+00
  -2.250000      0.0000000E+00
  -2.240000      0.0000000E+00
  -2.230000      0.0000000E+00
  -2.220000      0.0000000E+00
  -2.210000      0.0000000E+00
  -2.200000      0.0000000E+00
  -2.190000      0.0000000E+00
  -2.180000      0.0000000E+00
  -2.170000      0.0000000E+00
  -2.160000      0.0000000E+00
  -2.150000      0.0000000E+00
  -2.140000      0.0000000E+00
  -2.130000      0.0000000E+00
  -2.120000      0.0000000E+00
  -2.110000      0.0000000E+00
  -2.100000      0.0000000E+00
  -2.090000      0.0000000E+00
  -2.080000      0.0000000E+00
  -2.070000      0.0000000E+00
  -2.060000      0.0000000E+00
  -2.050000      0.0000000E+00
  -2.040000      0.0000000E+00
  -2.030000      0.0000000E+00
  -2.020000      0.0000000E+00
  -2.010000      0.0000000E+00
  -2.000000      0.0000000E+00
  -1.990000      0.0000000E+00
  -1.980000      0.0000000E+00
  -1.970000      0.0000000E+00
  -1.960000      0.0000000E+00
  -1.950000      0.0000000E+00
  -1.940000      0.0000000E+00
  -1.930000      0.0000000E+00
  -1.920000      0.0000000E+00
  -1.910000      0.0000000E+00
  -1.900000      0.0000000E+00
  -1.890000      0.0000000E+00
  -1.880000      0.0000000E+00
  -1.870000      0.0000000E+00
  -1.860000      0.0000000E+00
  -1.850000      0.0000000E+00
  -1.840000      0.0000000E+00
  -1.830000      0.0000000E+00
  -1.820000      0.0000000E+00
  -1.810000      0.0000000E+00
  -1.800000      0.0000000E+00
  -1.790000      0.0000000E+00
  -1.780000      0.0000000E+00
  -1.770000      0.0000000E+00
  -1.760000      0.0000000E+00
  -1.750000      0.0000000E+00
  -1.740000      0.0000000E+00
  -1.730000      0.0000000E+00
  -1.720000      0.0000000E+00
  -1.710000      0.0000000E+00
  -1.700000      0.0000000E+00
  -1.690000      0.0000000E+00
  -1.680000      0.0000000E+00
  -1.670000      0.0000000E+00
  -1.660000      0.0000000E+00
  -1.650000      0.0000000E+00
  -1.640000      0.0000000E+00
  -1.630000      0.0000000E+00
  -1.620000      0.0000000E+00
  -1.610000      0.0000000E+00
  -1.600000      0.0000000E+00
  -1.590000      0.0000000E+00
  -1.580000      0.0000000E+00
  -1.570000      0.0000000E+00
  -1.560000      0.0000000E+00
  -1.550000      0.0000000E+00
  -1.540000      0.0000000E+00
  -1.530000      0.0000000E+00
  -1.520000      0.0000000E+00
  -1.510000      0.0000000E+00
  -1.500000      0.0000000E+00
  -1.490000      0.0000000E+00
  -1.480000      0.0000000E+00
  -1.470000      0.0000000E+00
  -1.460000      0.0000000E+00
  -1.450000      0.0000000E+00
  -1.440000      0.0000000E+00
  -1.430000      0.0000000E+00
  -1.420000      0.0000000E+00
  -1.410000      0.0000000E+00
  -1.400000      0.0000000E+00
  -1.390000      0.0000000E+00
  -1.380000      0.0000000E+00
  -1.370000      0.0000000E+00
  -1.360000      0.0000000E+00
  -1.350000      0.0000000E+00
  -1.340000      0.0000000E+00
  -1.330000      0.0000000E+00
  -1.320000      0.0000000E+00
  -1.310000      0.0000000E+00
  -1.300000      0.0000000E+00
  -1.290000      0.0000000E+00
  -1.280000      0.0000000E+00
  -1.270000      0.0000000E+00
  -1.260000      0.0000000E+00
  -1.250000      0.0000000E+00
  -1.240000      0.0000000E+00
  -1.230000      0.0000000E+00
  -1.220000      0.0000000E+00
  -1.210000      0.0000000E+00
  -1.200000      0.0000000E+00
  -1.190000      0.0000000E+00
  -1.180000      0.0000000E+00
  -1.170000      0.0000000E+00
  -1.160000      0.0000000E+00
  -1.150000      0.0000000E+00
  -1.140000      0.0000000E+00
  -1.130000      0.0000000E+00
  -1.120000      0.0000000E+00
  -1.110000      0.0000000E+00
  -1.100000      0.0000000E+00
  -1.090000      0.0000000E+00
  -1.080000      0.0000000E+00
  -1.070000      0.0000000E+00
  -1.060000      0.0000000E+00
  -1.050000      0.0000000E+00
  -1.040000      0.0000000E+00
  -1.030000      0.0000000E+00
  -1.020000      0.0000000E+00
  -1.010000      0.0000000E+00
  -1.000000      0.0000000E+00
 -0.9900000      0.0000000E+00
 -0.9800000      0.0000000E+00
 -0.9700000      0.0000000E+00
 -0.9600000      0.0000000E+00
 -0.9500000      0.0000000E+00
 -0.9400000      0.0000000E+00
 -0.9300000      0.0000000E+00
 -0.9200000      0.0000000E+00
 -0.9100000      0.0000000E+00
 -0.9000000      0.0000000E+00
 -0.8900000      0.0000000E+00
 -0.8800000      0.0000000E+00
 -0.8700000      0.0000000E+00
 -0.8600000      0.0000000E+00
 -0.8500000      0.0000000E+00
 -0.8400000      0.0000000E+00
 -0.8300000      0.0000000E+00
 -0.8200000      0.0000000E+00
 -0.8100000      0.0000000E+00
 -0.8000000      0.0000000E+00
 -0.7900000      0.0000000E+00
 -0.7800000      0.0000000E+00
 -0.7700000      0.0000000E+00
 -0.7600000      0.0000000E+00
 -0.7500000      0.0000000E+00
 -0.7400000      0.0000000E+00
 -0.7300000      0.0000000E+00
 -0.7200000      0.0000000E+00
 -0.7100000      0.0000000E+00
 -0.7000000      0.0000000E+00
 -0.6900000      0.0000000E+00
 -0.6800000      0.0000000E+00
 -0.6700000      0.0000000E+00
 -0.6600000      0.0000000E+00
 -0.6500000      0.0000000E+00
 -0.6400000      0.0000000E+00
 -0.6300000      0.0000000E+00
 -0.6200000      0.0000000E+00
 -0.6100000      0.0000000E+00
 -0.6000000      0.0000000E+00
 -0.5900000      0.0000000E+00
 -0.5800000      0.0000000E+00
 -0.5700000      0.0000000E+00
 -0.5600000      0.0000000E+00
 -0.5500000      0.0000000E+00
 -0.5400000      0.0000000E+00
 -0.5300000      0.0000000E+00
 -0.5200000      0.0000000E+00
 -0.5100000      0.0000000E+00
 -0.5000000      0.0000000E+00
 -0.4900000      0.0000000E+00
 -0.4800000      0.0000000E+00
 -0.4700000      0.0000000E+00
 -0.4600000      0.0000000E+00
 -0.4500000      0.0000000E+00
 -0.4400000      0.0000000E+00
 -0.4300000      0.0000000E+00
 -0.4200000      0.0000000E+00
 -0.4100000      0.0000000E+00
 -0.4000000      0.0000000E+00
 -0.3900000      0.0000000E+00
 -0.3800000      0.0000000E+00
 -0.3700000      0.0000000E+00
 -0.3600000      0.0000000E+00
 -0.3500000      0.0000000E+00
 -0.3400000      0.0000000E+00
 -0.3300000      0.0000000E+00
 -0.3200000      0.0000000E+00
 -0.3100000      0.0000000E+00
 -0.3000000      0.0000000E+00
 -0.2900000      0.0000000E+00
 -0.2800000      0.0000000E+00
 -0.2700000      0.0000000E+00
 -0.2600000      0.0000000E+00
 -0.2500000      0.0000000E+00
 -0.2400000      0.0000000E+00
 -0.2300000      0.0000000E+00
 -0.2200000      0.0000000E+00
 -0.2100000      0.0000000E+00
 -0.2000000      0.0000000E+00
 -0.1900000      0.0000000E+00
 -0.1800000      0.0000000E+00
 -0.1700000      0.0000000E+00
 -0.1600000      0.0000000E+00
 -0.1500000      0.0000000E+00
 -0.1400000      0.0000000E+00
 -0.1300000      0.0000000E+00
 -0.1200000      0.0000000E+00
 -0.1100000      0.0000000E+00
 -0.1000000      0.0000000E+00
 -9.0000004E-02  0.0000000E+00
 -7.9999998E-02  0.0000000E+00
 -7.0000000E-02  0.0000000E+00
 -5.9999999E-02  0.0000000E+00
 -5.0000001E-02  0.0000000E+00
 -3.9999999E-02  0.0000000E+00
 -2.9999999E-02  0.0000000E+00
 -2.0000000E-02  0.0000000E+00
 -9.9999998E-03  0.0000000E+00
 -3.4694470E-17  0.0000000E+00
  9.9999998E-03  0.0000000E+00
  2.0000000E-02  0.0000000E+00
  2.9999999E-02  0.0000000E+00
  3.9999999E-02  0.0000000E+00
  5.0000001E-02  0.0000000E+00
  5.9999999E-02  0.0000000E+00
  7.0000000E-02  0.0000000E+00
  7.9999998E-02  0.0000000E+00
  9.0000004E-02  0.0000000E+00
  0.1000000      0.0000000E+00
  0.1100000      0.0000000E+00
  0.1200000      0.0000000E+00
  0.1300000      0.0000000E+00
  0.1400000      0.0000000E+00
  0.1500000      0.0000000E+00
  0.1600000      0.0000000E+00
  0.1700000      0.0000000E+00
  0.1800000      0.0000000E+00
  0.1900000      0.0000000E+00
  0.2000000      0.0000000E+00
  0.2100000      0.0000000E+00
  0.2200000      0.0000000E+00
  0.2300000      0.0000000E+00
  0.2400000      0.0000000E+00
  0.2500000      0.0000000E+00
  0.2600000      0.0000000E+00
  0.2700000      0.0000000E+00
  0.2800000      0.0000000E+00
  0.2900000      0.0000000E+00
  0.3000000      0.0000000E+00
  0.3100000      0.0000000E+00
  0.3200000      0.0000000E+00
  0.3300000      0.0000000E+00
  0.3400000      0.0000000E+00
  0.3500000      0.0000000E+00
  0.3600000      0.0000000E+00
  0.3700000      0.0000000E+00
  0.3800000      0.0000000E+00
  0.3900000      0.0000000E+00
  0.4000000      0.0000000E+00
  0.4100000      0.0000000E+00
  0.4200000      0.0000000E+00
  0.4300000      0.0000000E+00
  0.4400000      0.0000000E+00
  0.4500000      0.0000000E+00
  0.4600000      0.0000000E+00
  0.4700000      0.0000000E+00
  0.4800000      0.0000000E+00
  0.4900000      0.0000000E+00
  0.5000000      0.0000000E+00
  0.5100000      0.0000000E+00
  0.5200000      0.0000000E+00
  0.5300000      0.0000000E+00
  0.5400000      0.0000000E+00
  0.5500000      0.0000000E+00
  0.5600000      0.0000000E+00
  0.5700000      0.0000000E+00
  0.5800000      0.0000000E+00
  0.5900000      0.0000000E+00
  0.6000000      0.0000000E+00
  0.6100000      0.0000000E+00
  0.6200000      0.0000000E+00
  0.6300000      0.0000000E+00
  0.6400000      0.0000000E+00
  0.6500000      0.0000000E+00
  0.6600000      0.0000000E+00
  0.6700000      0.0000000E+00
  0.6800000      0.0000000E+00
  0.6900000      0.0000000E+00
  0.7000000      0.0000000E+00
  0.7100000      0.0000000E+00
  0.7200000      0.0000000E+00
  0.7300000      0.0000000E+00
  0.7400000      0.0000000E+00
  0.7500000      0.0000000E+00
  0.7600000      0.0000000E+00
  0.7700000      0.0000000E+00
  0.7800000      0.0000000E+00
  0.7900000      0.0000000E+00
  0.8000000      0.0000000E+00
  0.8100000      0.0000000E+00
  0.8200000      0.0000000E+00
  0.8300000      0.0000000E+00
  0.8400000      0.0000000E+00
  0.8500000      0.0000000E+00
  0.8600000      0.0000000E+00
  0.8700000      0.0000000E+00
  0.8800000      0.0000000E+00
  0.8900000      0.0000000E+00
  0.9000000      0.0000000E+00
  0.9100000      0.0000000E+00
  0.9200000      0.0000000E+00
  0.9300000      0.0000000E+00
  0.9400000      0.0000000E+00
  0.9500000      0.0000000E+00
  0.9600000      0.0000000E+00
  0.9700000      0.0000000E+00
  0.9800000      0.0000000E+00
  0.9900000      0.0000000E+00
   1.000000      0.0000000E+00
   1.010000      0.0000000E+00
   1.020000      0.0000000E+00
   1.030000      0.0000000E+00
   1.040000      0.0000000E+00
   1.050000      0.0000000E+00
   1.060000      0.0000000E+00
   1.070000      0.0000000E+00
   1.080000      0.0000000E+00
   1.090000      0.0000000E+00
   1.100000      0.0000000E+00
   1.110000      0.0000000E+00
   1.120000      0.0000000E+00
   1.130000      0.0000000E+00
   1.140000      0.0000000E+00
   1.150000      0.0000000E+00
   1.160000      0.0000000E+00
   1.170000      0.0000000E+00
   1.180000      0.0000000E+00
   1.190000      0.0000000E+00
   1.200000      0.0000000E+00
   1.210000      0.0000000E+00
   1.220000      0.0000000E+00
   1.230000      0.0000000E+00
   1.240000      0.0000000E+00
   1.250000      0.0000000E+00
   1.260000      0.0000000E+00
   1.270000      0.0000000E+00
   1.280000      0.0000000E+00
   1.290000      0.0000000E+00
   1.300000      0.0000000E+00
   1.310000      0.0000000E+00
   1.320000      0.0000000E+00
   1.330000      0.0000000E+00
   1.340000      0.0000000E+00
   1.350000      0.0000000E+00
   1.360000      0.0000000E+00
   1.370000      0.0000000E+00
   1.380000      0.0000000E+00
   1.390000      0.0000000E+00
   1.400000      0.0000000E+00
   1.410000      0.0000000E+00
   1.420000      0.0000000E+00
   1.430000      0.0000000E+00
   1.440000      0.0000000E+00
   1.450000      0.0000000E+00
   1.460000      0.0000000E+00
   1.470000      0.0000000E+00
   1.480000      0.0000000E+00
   1.490000      0.0000000E+00
   1.500000      0.0000000E+00
   1.510000      0.0000000E+00
   1.520000      0.0000000E+00
   1.530000      0.0000000E+00
   1.540000      0.0000000E+00
   1.550000      0.0000000E+00
   1.560000      0.0000000E+00
   1.570000      0.0000000E+00
   1.580000      0.0000000E+00
   1.590000      0.0000000E+00
   1.600000      0.0000000E+00
   1.610000      0.0000000E+00
   1.620000      0.0000000E+00
   1.630000      0.0000000E+00
   1.640000      0.0000000E+00
   1.650000      0.0000000E+00
   1.660000      0.0000000E+00
   1.670000      0.0000000E+00
   1.680000      0.0000000E+00
   1.690000      0.0000000E+00
   1.700000      0.0000000E+00
   1.710000      0.0000000E+00
   1.720000      0.0000000E+00
   1.730000      0.0000000E+00
   1.740000      0.0000000E+00
   1.750000      0.0000000E+00
   1.760000      0.0000000E+00
   1.770000      0.0000000E+00
   1.780000      0.0000000E+00
   1.790000      0.0000000E+00
   1.800000      0.0000000E+00
   1.810000      0.0000000E+00
   1.820000      0.0000000E+00
   1.830000      0.0000000E+00
   1.840000      0.0000000E+00
   1.850000      0.0000000E+00
   1.860000      0.0000000E+00
   1.870000      0.0000000E+00
   1.880000      0.0000000E+00
   1.890000      0.0000000E+00
   1.900000      0.0000000E+00
   1.910000      0.0000000E+00
   1.920000      0.0000000E+00
   1.930000      0.0000000E+00
   1.940000      0.0000000E+00
   1.950000      0.0000000E+00
   1.960000      0.0000000E+00
   1.970000      0.0000000E+00
   1.980000      0.0000000E+00
   1.990000      0.0000000E+00
   2.000000      0.0000000E+00
   2.010000      0.0000000E+00
   2.020000      0.0000000E+00
   2.030000      0.0000000E+00
   2.040000      0.0000000E+00
   2.050000      0.0000000E+00
   2.060000      0.0000000E+00
   2.070000      0.0000000E+00
   2.080000      0.0000000E+00
   2.090000      0.0000000E+00
   2.100000      0.0000000E+00
   2.110000      0.0000000E+00
   2.120000      0.0000000E+00
   2.130000      0.0000000E+00
   2.140000      0.0000000E+00
   2.150000      0.0000000E+00
   2.160000      0.0000000E+00
   2.170000      0.0000000E+00
   2.180000      0.0000000E+00
   2.190000      0.0000000E+00
   2.200000      0.0000000E+00
   2.210000      0.0000000E+00
   2.220000      0.0000000E+00
   2.230000      0.0000000E+00
   2.240000      0.0000000E+00
   2.250000      0.0000000E+00
   2.260000      0.0000000E+00
   2.270000      0.0000000E+00
   2.280000      0.0000000E+00
   2.290000      0.0000000E+00
   2.300000      0.0000000E+00
   2.310000      0.0000000E+00
   2.320000      0.0000000E+00
   2.330000      0.0000000E+00
   2.340000      0.0000000E+00
   2.350000      0.0000000E+00
   2.360000      0.0000000E+00
   2.370000      0.0000000E+00
   2.380000      0.0000000E+00
   2.390000      0.0000000E+00
   2.400000      0.0000000E+00
   2.410000      0.0000000E+00
   2.420000      0.0000000E+00
   2.430000      0.0000000E+00
   2.440000      0.0000000E+00
   2.450000      0.0000000E+00
   2.460000      0.0000000E+00
   2.470000      0.0000000E+00
   2.480000      0.0000000E+00
   2.490000      0.0000000E+00
   2.500000      0.0000000E+00
   2.510000      0.0000000E+00
   2.520000      0.0000000E+00
   2.530000      1.2869454E-38
   2.540000      1.8841233E-38
   2.550000      2.3738514E-38
   2.560000      2.7299253E-38
   2.570000      2.9681074E-38
   2.580000      3.0924981E-38
   2.590000      3.2994618E-38
   2.600000      3.6389552E-38
   2.610000      4.1347295E-38
   2.620000      4.9910748E-38
   2.630000      6.2522148E-38
   2.640000      7.5693586E-38
   2.650000      8.9297330E-38
   2.660000      1.1093119E-37
   2.670000      1.4038649E-37
   2.680000      1.7245206E-37
   2.690000      2.0948309E-37
   2.700000      2.5208662E-37
   2.710000      2.9826176E-37
   2.720000      3.4783087E-37
   2.730000      4.0120175E-37
   2.740000      4.6153852E-37
   2.750000      5.2900739E-37
   2.760000      5.9535266E-37
   2.770000      6.5736014E-37
   2.780000      7.1742742E-37
   2.790000      7.7520244E-37
   2.800000      8.1997852E-37
   2.810000      8.5051660E-37
   2.820000      8.7343727E-37
   2.830000      8.8699377E-37
   2.840000      8.8379181E-37
   2.850000      8.5917102E-37
   2.860000      8.2091624E-37
   2.870000      7.7474532E-37
   2.880000      7.2191668E-37
   2.890000      6.5827500E-37
   2.900000      5.9053376E-37
   2.910000      5.2729224E-37
   2.920000      4.6412292E-37
   2.930000      4.0276789E-37
   2.940000      3.4839452E-37
   2.950000      2.9501189E-37
   2.960000      2.3881608E-37
   2.970000      1.8110998E-37
   2.980000      1.1700739E-37
   2.990000      4.4066168E-38
   3.000000     -4.1766976E-38
   3.010000     -1.4512319E-37
   3.020000     -2.6516443E-37
   3.030000     -4.0325975E-37
   3.040000     -5.6564778E-37
   3.050000     -7.6129904E-37
   3.060000     -9.9325802E-37
   3.070000     -1.2557309E-36
   3.080000     -1.5448555E-36
   3.090000     -1.8657787E-36
   3.100000     -2.2170267E-36
   3.110000     -2.5923654E-36
   3.120000     -2.9860907E-36
   3.130000     -3.3991919E-36
   3.140000     -3.8172798E-36
   3.150000     -4.1973991E-36
   3.160000     -4.5492500E-36
   3.170000     -4.8860975E-36
   3.180000     -5.2186995E-36
   3.190000     -5.5726984E-36
   3.200000     -5.9434595E-36
   3.210000     -6.3190398E-36
   3.220000     -6.6813330E-36
   3.230000     -7.0182781E-36
   3.240000     -7.2938406E-36
   3.250000     -7.4779356E-36
   3.260000     -7.5868403E-36
   3.270000     -7.5705287E-36
   3.280000     -7.4138653E-36
   3.290000     -7.1953104E-36
   3.300000     -6.8959640E-36
   3.310000     -6.4461286E-36
   3.320000     -5.7033940E-36
   3.330000     -4.6896858E-36
   3.340000     -3.5773789E-36
   3.350000     -2.5052887E-36
   3.360000     -1.4648754E-36
   3.370000     -2.8144006E-37
   3.380000      9.8873001E-37
   3.390000      2.1559749E-36
   3.400000      3.3341153E-36
   3.410000      4.7087431E-36
   3.420000      6.2281901E-36
   3.430000      7.9545381E-36
   3.440000      9.8707876E-36
   3.450000      1.1674724E-35
   3.460000      1.3351128E-35
   3.470000      1.5110602E-35
   3.480000      1.7034289E-35
   3.490000      1.9179545E-35
   3.500000      2.1523185E-35
   3.510000      2.3924794E-35
   3.520000      2.6513476E-35
   3.530000      2.9522389E-35
   3.540000      3.2492326E-35
   3.550000      3.5052851E-35
   3.560000      3.7382589E-35
   3.570000      3.9092126E-35
   3.580000      4.0154405E-35
   3.590000      4.0902962E-35
   3.600000      4.1307836E-35
   3.610000      4.1334577E-35
   3.620000      4.0929034E-35
   3.630000      4.0246975E-35
   3.640000      3.9339988E-35
   3.650000      3.7885440E-35
   3.660000      3.5874432E-35
   3.670000      3.3539092E-35
   3.680000      3.0642038E-35
   3.690000      2.6969078E-35
   3.700000      2.2524552E-35
   3.710000      1.7354013E-35
   3.720000      1.1586113E-35
   3.730000      5.2437021E-36
   3.740000     -1.6246148E-36
   3.750000     -9.2234758E-36
   3.760000     -1.8476493E-35
   3.770000     -2.9163059E-35
   3.780000     -4.0873549E-35
   3.790000     -5.4127474E-35
   3.800000     -6.8718648E-35
   3.810000     -8.3560934E-35
   3.820000     -9.8451417E-35
   3.830000     -1.1430131E-34
   3.840000     -1.3035508E-34
   3.850000     -1.4610560E-34
   3.860000     -1.6214746E-34
   3.870000     -1.7829401E-34
   3.880000     -1.9420512E-34
   3.890000     -2.1015454E-34
   3.900000     -2.2667237E-34
   3.910000     -2.4320698E-34
   3.920000     -2.5987269E-34
   3.930000     -2.7748518E-34
   3.940000     -2.9521579E-34
   3.950000     -3.1328988E-34
   3.960000     -3.3239892E-34
   3.970000     -3.5214941E-34
   3.980000     -3.6824693E-34
   3.990000     -3.8013311E-34
   4.000000     -3.9009731E-34
   4.010000     -3.9672250E-34
   4.020000     -4.0100612E-34
   4.030000     -4.0374700E-34
   4.040000     -4.0333925E-34
   4.050000     -3.9544259E-34
   4.060000     -3.8247829E-34
   4.070000     -3.6707337E-34
   4.080000     -3.4810947E-34
   4.090000     -3.2729413E-34
   4.100000     -3.0723542E-34
   4.110000     -2.8721965E-34
   4.120000     -2.6708942E-34
   4.130000     -2.4545415E-34
   4.140000     -2.2037918E-34
   4.150000     -1.9139588E-34
   4.160000     -1.5607703E-34
   4.170000     -1.1589007E-34
   4.180000     -7.0403232E-35
   4.190000     -1.9050011E-35
   4.200000      3.7638724E-35
   4.210000      1.0122307E-34
   4.220000      1.7292893E-34
   4.230000      2.5324644E-34
   4.240000      3.4268094E-34
   4.250000      4.4045103E-34
   4.260000      5.4577661E-34
   4.270000      6.6260004E-34
   4.280000      7.8757102E-34
   4.290000      9.1555214E-34
   4.300000      1.0469559E-33
   4.310000      1.1824226E-33
   4.320000      1.3229094E-33
   4.330000      1.4669504E-33
   4.340000      1.6140981E-33
   4.350000      1.7644095E-33
   4.360000      1.9136815E-33
   4.370000      2.0627158E-33
   4.380000      2.2141239E-33
   4.390000      2.3652418E-33
   4.400000      2.5114472E-33
   4.410000      2.6513977E-33
   4.420000      2.7848800E-33
   4.430000      2.9071393E-33
   4.440000      3.0188344E-33
   4.450000      3.1205940E-33
   4.460000      3.2093982E-33
   4.470000      3.2849796E-33
   4.480000      3.3473972E-33
   4.490000      3.3949206E-33
   4.500000      3.4264643E-33
   4.510000      3.4404945E-33
   4.520000      3.4350138E-33
   4.530000      3.4082621E-33
   4.540000      3.3596117E-33
   4.550000      3.2904342E-33
   4.560000      3.1966088E-33
   4.570000      3.0703271E-33
   4.580000      2.9138404E-33
   4.590000      2.7291291E-33
   4.600000      2.5126102E-33
   4.610000      2.2606922E-33
   4.620000      1.9709117E-33
   4.630000      1.6419085E-33
   4.640000      1.2713489E-33
   4.650000      8.5735535E-34
   4.660000      3.9887995E-34
   4.670000     -1.0459416E-34
   4.680000     -6.5764932E-34
   4.690000     -1.2591450E-33
   4.700000     -1.9076624E-33
   4.710000     -2.6061494E-33
   4.720000     -3.3526109E-33
   4.730000     -4.1462779E-33
   4.740000     -4.9863005E-33
   4.750000     -5.8711461E-33
   4.760000     -6.7988999E-33
   4.770000     -7.7665970E-33
   4.780000     -8.7707623E-33
   4.790000     -9.8078209E-33
   4.800000     -1.0873890E-32
   4.810000     -1.1964338E-32
   4.820000     -1.3073833E-32
   4.830000     -1.4196016E-32
   4.840000     -1.5326244E-32
   4.850000     -1.6457390E-32
   4.860000     -1.7580361E-32
   4.870000     -1.8688857E-32
   4.880000     -1.9773349E-32
   4.890000     -2.0824216E-32
   4.900000     -2.1831872E-32
   4.910000     -2.2785186E-32
   4.920000     -2.3673651E-32
   4.930000     -2.4485627E-32
   4.940000     -2.5208785E-32
   4.950000     -2.5830063E-32
   4.960000     -2.6335887E-32
   4.970000     -2.6712119E-32
   4.980000     -2.6943929E-32
   4.990000     -2.7015608E-32
   5.000000     -2.6910519E-32
   5.010000     -2.6613512E-32
   5.020000     -2.6108006E-32
   5.030000     -2.5375579E-32
   5.040000     -2.4398853E-32
   5.050000     -2.3160025E-32
   5.060000     -2.1641195E-32
   5.070000     -1.9824523E-32
   5.080000     -1.7692305E-32
   5.090000     -1.5227129E-32
   5.100000     -1.2412027E-32
   5.110000     -9.2306722E-33
   5.120000     -5.6677331E-33
   5.130000     -1.7083232E-33
   5.140000      2.6613379E-33
   5.150000      7.4532690E-33
   5.160000      1.2678284E-32
   5.170000      1.8345726E-32
   5.180000      2.4462802E-32
   5.190000      3.1034908E-32
   5.200000      3.8065096E-32
   5.210000      4.5553871E-32
   5.220000      5.3499410E-32
   5.230000      6.1897101E-32
   5.240000      7.0739240E-32
   5.250000      8.0014566E-32
   5.260000      8.9708374E-32
   5.270000      9.9802198E-32
   5.280000      1.1027350E-31
   5.290000      1.2109555E-31
   5.300000      1.3223706E-31
   5.310000      1.4366202E-31
   5.320000      1.5532934E-31
   5.330000      1.6719271E-31
   5.340000      1.7920045E-31
   5.350000      1.9129513E-31
   5.360000      2.0341349E-31
   5.370000      2.1548619E-31
   5.380000      2.2743756E-31
   5.390000      2.3918552E-31
   5.400000      2.5064147E-31
   5.410000      2.6171002E-31
   5.420000      2.7228909E-31
   5.430000      2.8226974E-31
   5.440000      2.9153612E-31
   5.450000      2.9996556E-31
   5.460000      3.0742866E-31
   5.470000      3.1378924E-31
   5.480000      3.1890461E-31
   5.490000      3.2262569E-31
   5.500000      3.2479729E-31
   5.510000      3.2525858E-31
   5.520000      3.2384284E-31
   5.530000      3.2037816E-31
   5.540000      3.1468844E-31
   5.550000      3.0659319E-31
   5.560000      2.9590825E-31
   5.570000      2.8244651E-31
   5.580000      2.6601851E-31
   5.590000      2.4643320E-31
   5.600000      2.2349888E-31
   5.610000      1.9702404E-31
   5.620000      1.6681822E-31
   5.630000      1.3269323E-31
   5.640000      9.4464325E-32
   5.650000      5.1951308E-32
   5.660000      4.9800450E-33
   5.670000     -4.6616259E-32
   5.680000     -1.0299550E-31
   5.690000     -1.6430504E-31
   5.700000     -2.3068000E-31
   5.710000     -3.0224160E-31
   5.720000     -3.7909512E-31
   5.730000     -4.6132807E-31
   5.740000     -5.4900815E-31
   5.750000     -6.4218126E-31
   5.760000     -7.4086914E-31
   5.770000     -8.4506721E-31
   5.780000     -9.5474272E-31
   5.790000     -1.0698317E-30
   5.800000     -1.1902372E-30
   5.810000     -1.3158266E-30
   5.820000     -1.4464292E-30
   5.830000     -1.5818342E-30
   5.840000     -1.7217878E-30
   5.850000     -1.8659903E-30
   5.860000     -2.0140948E-30
   5.870000     -2.1657041E-30
   5.880000     -2.3203685E-30
   5.890000     -2.4775830E-30
   5.900000     -2.6367856E-30
   5.910000     -2.7973551E-30
   5.920000     -2.9586083E-30
   5.930000     -3.1197981E-30
   5.940000     -3.2801130E-30
   5.950000     -3.4386727E-30
   5.960000     -3.5945289E-30
   5.970000     -3.7466635E-30
   5.980000     -3.8939847E-30
   5.990000     -4.0353299E-30
   6.000000     -4.1694619E-30
   6.010000     -4.2950702E-30
   6.020000     -4.4107696E-30
   6.030000     -4.5151028E-30
   6.040000     -4.6065363E-30
   6.050000     -4.6834663E-30
   6.060000     -4.7442166E-30
   6.070000     -4.7870422E-30
   6.080000     -4.8101319E-30
   6.090000     -4.8116087E-30
   6.100000     -4.7895361E-30
   6.110000     -4.7419205E-30
   6.120000     -4.6667163E-30
   6.130000     -4.5618299E-30
   6.140000     -4.4251269E-30
   6.150000     -4.2544372E-30
   6.160000     -4.0475630E-30
   6.170000     -3.8022868E-30
   6.180000     -3.5163783E-30
   6.190000     -3.1876055E-30
   6.200000     -2.8137434E-30
   6.210000     -2.3925847E-30
   6.220000     -1.9219509E-30
   6.230000     -1.3997065E-30
   6.240000     -8.2377074E-31
   6.250000     -1.9213066E-31
   6.260000      4.9714374E-31
   6.270000      1.2458838E-30
   6.280000      2.0558048E-30
   6.290000      2.9284905E-30
   6.300000      3.8653753E-30
   6.310000      4.8677225E-30
   6.320000      5.9366083E-30
   6.330000      7.0728995E-30
   6.340000      8.2772331E-30
   6.350000      9.5499922E-30
   6.360000      1.0891287E-29
   6.370000      1.2300928E-29
   6.380000      1.3778405E-29
   6.390000      1.5322861E-29
   6.400000      1.6933068E-29
   6.410000      1.8607399E-29
   6.420000      2.0343807E-29
   6.430000      2.2139800E-29
   6.440000      2.3992408E-29
   6.450000      2.5898164E-29
   6.460000      2.7853076E-29
   6.470000      2.9852603E-29
   6.480000      3.1891621E-29
   6.490000      3.3964419E-29
   6.500000      3.6064651E-29
   6.510000      3.8185326E-29
   6.520000      4.0318790E-29
   6.530000      4.2456701E-29
   6.540000      4.4589997E-29
   6.550000      4.6708899E-29
   6.560000      4.8802875E-29
   6.570000      5.0860644E-29
   6.580000      5.2870141E-29
   6.590000      5.4818538E-29
   6.600000      5.6692197E-29
   6.610000      5.8476698E-29
   6.620000      6.0156813E-29
   6.630000      6.1716521E-29
   6.640000      6.3139019E-29
   6.650000      6.4406690E-29
   6.660000      6.5501172E-29
   6.670000      6.6403326E-29
   6.680000      6.7093272E-29
   6.690000      6.7550440E-29
   6.700000      6.7753535E-29
   6.710000      6.7680651E-29
   6.720000      6.7309241E-29
   6.730000      6.6616208E-29
   6.740000      6.5577945E-29
   6.750000      6.4170379E-29
   6.760000      6.2369081E-29
   6.770000      6.0149272E-29
   6.780000      5.7485951E-29
   6.790000      5.4353968E-29
   6.800000      5.0728098E-29
   6.810000      4.6583172E-29
   6.820000      4.1894176E-29
   6.830000      3.6636354E-29
   6.840000      3.0785346E-29
   6.850000      2.4317318E-29
   6.860000      1.7209094E-29
   6.870000      9.4383131E-30
   6.880000      9.8358051E-31
   6.890000     -8.1753635E-30
   6.900000     -1.8057483E-29
   6.910000     -2.8680248E-29
   6.920000     -4.0059460E-29
   6.930000     -5.2209072E-29
   6.940000     -6.5140945E-29
   6.950000     -7.8864671E-29
   6.960000     -9.3387356E-29
   6.970000     -1.0871336E-28
   6.980000     -1.2484414E-28
   6.990000     -1.4177795E-28
   7.000000     -1.5950962E-28
   7.010000     -1.7803034E-28
   7.020000     -1.9732734E-28
   7.030000     -2.1738373E-28
   7.040000     -2.3817819E-28
   7.050000     -2.5968474E-28
   7.060000     -2.8187239E-28