  -2.600000      0.0000000E+00
  -2.590000      0.0000000E+00
  -2.580000      0.0000000E+00
  -2.570000      0.0000000E+00
  -2.560000      0.0000000E+00
  -2.550000      0.0000000E+00
  -2.540000      0.0000000E+00
  -2.530000      0.0000000E+00
  -2.520000      0.0000000E+00
  -2.510000      0.0000000E+00
  -2.500000      0.0000000E+00
  -2.490000      0.0000000E+00
  -2.480000      0.0000000E+00
  -2.470000      0.0000000E+00
  -2.460000      0.0000000E+00
  -2.450000      0.0000000E+00
  -2.440000      0.0000000E+00
  -2.430000      0.0000000E+00
  -2.420000      0.0000000E+00
  -2.410000      0.0000000E+00
  -2.400000      0.0000000E+00
  -2.390000      0.0000000E+00
  -2.380000      0.0000000E+00
  -2.370000      0.0000000E+00
  -2.360000      0.0000000E+00
  -2.350000      0.0000000E+00
  -2.340000      0.0000000E+00
  -2.330000      0.0000000E+00
  -2.320000      0.0000000E+00
  -2.310000      0.0000000E+00
  -2.300000      0.0000000E+00
  -2.290000      0.0000000E+00
  -2.280000      0.0000000E+00
  -2.270000      0.0000000E+00
  -2.260000      0.0000000E+00
  -2.250000      0.0000000E+00
  -2.240000      0.0000000E+00
  -2.230000      0.0000000E+00
  -2.220000      0.0000000E+00
  -2.210000      0.0000000E+00
  -2.200000      0.0000000E+00
  -2.190000      0.0000000E+00
  -2.180000      0.0000000E+00
  -2.170000      0.0000000E+00
  -2.160000      0.0000000E+00
  -2.150000      0.0000000E+00
  -2.140000      0.0000000E+00
  -2.130000      0.0000000E+00
  -2.120000      0.0000000E+00
  -2.110000      0.0000000E+00
  -2.100000      0.0000000E+00
  -2.090000      0.0000000E+00
  -2.080000      0.0000000E+00
  -2.070000      0.0000000E+00
  -2.060000      0.0000000E+00
  -2.050000      0.0000000E+00
  -2.040000      0.0000000E+00
  -2.030000      0.0000000E+00
  -2.020000      0.0000000E+00
  -2.010000      0.0000000E+00
  -2.000000      0.0000000E+00
  -1.990000      0.0000000E+00
  -1.980000      0.0000000E+00
  -1.970000      0.0000000E+00
  -1.960000      0.0000000E+00
  -1.950000      0.0000000E+00
  -1.940000      0.0000000E+00
  -1.930000      0.0000000E+00
  -1.920000      0.0000000E+00
  -1.910000      0.0000000E+00
  -1.900000      0.0000000E+00
  -1.890000      0.0000000E+00
  -1.880000      0.0000000E+00
  -1.870000      0.0000000E+00
  -1.860000      0.0000000E+00
  -1.850000      0.0000000E+00
  -1.840000      0.0000000E+00
  -1.830000      0.0000000E+00
  -1.820000      0.0000000E+00
  -1.810000      0.0000000E+00
  -1.800000      0.0000000E+00
  -1.790000      0.0000000E+00
  -1.780000      0.0000000E+00
  -1.770000      0.0000000E+00
  -1.760000      0.0000000E+00
  -1.750000      0.0000000E+00
  -1.740000      0.0000000E+00
  -1.730000      0.0000000E+00
  -1.720000      0.0000000E+00
  -1.710000      0.0000000E+00
  -1.700000      0.0000000E+00
  -1.690000      0.0000000E+00
  -1.680000      0.0000000E+00
  -1.670000      0.0000000E+00
  -1.660000      0.0000000E+00
  -1.650000      0.0000000E+00
  -1.640000      0.0000000E+00
  -1.630000      0.0000000E+00
  -1.620000      0.0000000E+00
  -1.610000      0.0000000E+00
  -1.600000      0.0000000E+00
  -1.590000      0.0000000E+00
  -1.580000      0.0000000E+00
  -1.570000      0.0000000E+00
  -1.560000      0.0000000E+00
  -1.550000      0.0000000E+00
  -1.540000      0.0000000E+00
  -1.530000      0.0000000E+00
  -1.520000      0.0000000E+00
  -1.510000      0.0000000E+00
  -1.500000      0.0000000E+00
  -1.490000      0.0000000E+00
  -1.480000      0.0000000E+00
  -1.470000      0.0000000E+00
  -1.460000      0.0000000E+00
  -1.450000      0.0000000E+00
  -1.440000      0.0000000E+00
  -1.430000      0.0000000E+00
  -1.420000      0.0000000E+00
  -1.410000      0.0000000E+00
  -1.400000      0.0000000E+00
  -1.390000      0.0000000E+00
  -1.380000      0.0000000E+00
  -1.370000      0.0000000E+00
  -1.360000      0.0000000E+00
  -1.350000      0.0000000E+00
  -1.340000      0.0000000E+00
  -1.330000      0.0000000E+00
  -1.320000      0.0000000E+00
  -1.310000      0.0000000E+00
  -1.300000      0.0000000E+00
  -1.290000      0.0000000E+00
  -1.280000      0.0000000E+00
  -1.270000      0.0000000E+00
  -1.260000      0.0000000E+00
  -1.250000      0.0000000E+00
  -1.240000      0.0000000E+00
  -1.230000      0.0000000E+00
  -1.220000      0.0000000E+00
  -1.210000      0.0000000E+00
  -1.200000      0.0000000E+00
  -1.190000      0.0000000E+00
  -1.180000      0.0000000E+00
  -1.170000      0.0000000E+00
  -1.160000      0.0000000E+00
  -1.150000      0.0000000E+00
  -1.140000      0.0000000E+00
  -1.130000      0.0000000E+00
  -1.120000      0.0000000E+00
  -1.110000      0.0000000E+00
  -1.100000      0.0000000E+00
  -1.090000      0.0000000E+00
  -1.080000      0.0000000E+00
  -1.070000      0.0000000E+00
  -1.060000      0.0000000E+00
  -1.050000      0.0000000E+00
  -1.040000      0.0000000E+00
  -1.030000      0.0000000E+00
  -1.020000      0.0000000E+00
  -1.010000      0.0000000E+00
  -1.000000      0.0000000E+00
 -0.9900000      0.0000000E+00
 -0.9800000      0.0000000E+00
 -0.9700000      0.0000000E+00
 -0.9600000      0.0000000E+00
 -0.9500000      0.0000000E+00
 -0.9400000      0.0000000E+00
 -0.9300000      0.0000000E+00
 -0.9200000      0.0000000E+00
 -0.9100000      0.0000000E+00
 -0.9000000      0.0000000E+00
 -0.8900000      0.0000000E+00
 -0.8800000      0.0000000E+00
 -0.8700000      0.0000000E+00
 -0.8600000      0.0000000E+00
 -0.8500000      0.0000000E+00
 -0.8400000      0.0000000E+00
 -0.8300000      0.0000000E+00
 -0.8200000      0.0000000E+00
 -0.8100000      0.0000000E+00
 -0.8000000      0.0000000E+00
 -0.7900000      0.0000000E+00
 -0.7800000      0.0000000E+00
 -0.7700000      0.0000000E+00
 -0.7600000      0.0000000E+00
 -0.7500000      0.0000000E+00
 -0.7400000      0.0000000E+00
 -0.7300000      0.0000000E+00
 -0.7200000      0.0000000E+00
 -0.7100000      0.0000000E+00
 -0.7000000      0.0000000E+00
 -0.6900000      0.0000000E+00
 -0.6800000      0.0000000E+00
 -0.6700000      0.0000000E+00
 -0.6600000      0.0000000E+00
 -0.6500000      0.0000000E+00
 -0.6400000      0.0000000E+00
 -0.6300000      0.0000000E+00
 -0.6200000      0.0000000E+00
 -0.6100000      0.0000000E+00
 -0.6000000      0.0000000E+00
 -0.5900000      0.0000000E+00
 -0.5800000      0.0000000E+00
 -0.5700000      0.0000000E+00
 -0.5600000      0.0000000E+00
 -0.5500000      0.0000000E+00
 -0.5400000      0.0000000E+00
 -0.5300000      0.0000000E+00
 -0.5200000      0.0000000E+00
 -0.5100000      0.0000000E+00
 -0.5000000      0.0000000E+00
 -0.4900000      0.0000000E+00
 -0.4800000      0.0000000E+00
 -0.4700000      0.0000000E+00
 -0.4600000      0.0000000E+00
 -0.4500000      0.0000000E+00
 -0.4400000      0.0000000E+00
 -0.4300000      0.0000000E+00
 -0.4200000      0.0000000E+00
 -0.4100000      0.0000000E+00
 -0.4000000      0.0000000E+00
 -0.3900000      0.0000000E+00
 -0.3800000      0.0000000E+00
 -0.3700000      0.0000000E+00
 -0.3600000      0.0000000E+00
 -0.3500000      0.0000000E+00
 -0.3400000      0.0000000E+00
 -0.3300000      0.0000000E+00
 -0.3200000      0.0000000E+00
 -0.3100000      0.0000000E+00
 -0.3000000      0.0000000E+00
 -0.2900000      0.0000000E+00
 -0.2800000      0.0000000E+00
 -0.2700000      0.0000000E+00
 -0.2600000      0.0000000E+00
 -0.2500000      0.0000000E+00
 -0.2400000      0.0000000E+00
 -0.2300000      0.0000000E+00
 -0.2200000      0.0000000E+00
 -0.2100000      0.0000000E+00
 -0.2000000      0.0000000E+00
 -0.1900000      0.0000000E+00
 -0.1800000      0.0000000E+00
 -0.1700000      0.0000000E+00
 -0.1600000      0.0000000E+00
 -0.1500000      0.0000000E+00
 -0.1400000      0.0000000E+00
 -0.1300000      0.0000000E+00
 -0.1200000      0.0000000E+00
 -0.1100000      0.0000000E+00
 -0.1000000      0.0000000E+00
 -9.0000004E-02  0.0000000E+00
 -7.9999998E-02  0.0000000E+00
 -7.0000000E-02  0.0000000E+00
 -5.9999999E-02  0.0000000E+00
 -5.0000001E-02  0.0000000E+00
 -3.9999999E-02  0.0000000E+00
 -2.9999999E-02  0.0000000E+00
 -2.0000000E-02  0.0000000E+00
 -9.9999998E-03  0.0000000E+00
 -3.4694470E-17  0.0000000E+00
  9.9999998E-03  0.0000000E+00
  2.0000000E-02  0.0000000E+00
  2.9999999E-02  0.0000000E+00
  3.9999999E-02  0.0000000E+00
  5.0000001E-02  0.0000000E+00
  5.9999999E-02  0.0000000E+00
  7.0000000E-02  0.0000000E+00
  7.9999998E-02  0.0000000E+00
  9.0000004E-02  0.0000000E+00
  0.1000000      0.0000000E+00
  0.1100000      0.0000000E+00
  0.1200000      0.0000000E+00
  0.1300000      0.0000000E+00
  0.1400000      0.0000000E+00
  0.1500000      0.0000000E+00
  0.1600000      0.0000000E+00
  0.1700000      0.0000000E+00
  0.1800000      0.0000000E+00
  0.1900000      0.0000000E+00
  0.2000000      0.0000000E+00
  0.2100000      0.0000000E+00
  0.2200000      0.0000000E+00
  0.2300000      0.0000000E+00
  0.2400000      0.0000000E+00
  0.2500000      0.0000000E+00
  0.2600000      0.0000000E+00
  0.2700000      0.0000000E+00
  0.2800000      0.0000000E+00
  0.2900000      0.0000000E+00
  0.3000000      0.0000000E+00
  0.3100000      0.0000000E+00
  0.3200000      0.0000000E+00
  0.3300000      0.0000000E+00
  0.3400000      0.0000000E+00
  0.3500000      0.0000000E+00
  0.3600000      0.0000000E+00
  0.3700000      0.0000000E+00
  0.3800000      0.0000000E+00
  0.3900000      0.0000000E+00
  0.4000000      0.0000000E+00
  0.4100000      0.0000000E+00
  0.4200000      0.0000000E+00
  0.4300000      0.0000000E+00
  0.4400000      0.0000000E+00
  0.4500000      0.0000000E+00
  0.4600000      0.0000000E+00
  0.4700000      0.0000000E+00
  0.4800000      0.0000000E+00
  0.4900000      0.0000000E+00
  0.5000000      0.0000000E+00
  0.5100000      0.0000000E+00
  0.5200000      0.0000000E+00
  0.5300000      0.0000000E+00
  0.5400000      0.0000000E+00
  0.5500000      0.0000000E+00
  0.5600000      0.0000000E+00
  0.5700000      0.0000000E+00
  0.5800000      0.0000000E+00
  0.5900000      0.0000000E+00
  0.6000000      0.0000000E+00
  0.6100000      0.0000000E+00
  0.6200000      0.0000000E+00
  0.6300000      0.0000000E+00
  0.6400000      0.0000000E+00
  0.6500000      0.0000000E+00
  0.6600000      0.0000000E+00
  0.6700000      0.0000000E+00
  0.6800000      0.0000000E+00
  0.6900000      0.0000000E+00
  0.7000000      0.0000000E+00
  0.7100000      0.0000000E+00
  0.7200000      0.0000000E+00
  0.7300000      0.0000000E+00
  0.7400000      0.0000000E+00
  0.7500000      0.0000000E+00
  0.7600000      0.0000000E+00
  0.7700000      0.0000000E+00
  0.7800000      0.0000000E+00
  0.7900000      0.0000000E+00
  0.8000000      0.0000000E+00
  0.8100000      0.0000000E+00
  0.8200000      0.0000000E+00
  0.8300000      0.0000000E+00
  0.8400000      0.0000000E+00
  0.8500000      0.0000000E+00
  0.8600000      0.0000000E+00
  0.8700000      0.0000000E+00
  0.8800000      0.0000000E+00
  0.8900000      0.0000000E+00
  0.9000000      0.0000000E+00
  0.9100000      0.0000000E+00
  0.9200000      0.0000000E+00
  0.9300000      0.0000000E+00
  0.9400000      0.0000000E+00
  0.9500000      0.0000000E+00
  0.9600000      0.0000000E+00
  0.9700000      0.0000000E+00
  0.9800000      0.0000000E+00
  0.9900000      0.0000000E+00
   1.000000      0.0000000E+00
   1.010000      0.0000000E+00
   1.020000      0.0000000E+00
   1.030000      0.0000000E+00
   1.040000      0.0000000E+00
   1.050000      0.0000000E+00
   1.060000      0.0000000E+00
   1.070000      0.0000000E+00
   1.080000      0.0000000E+00
   1.090000      0.0000000E+00
   1.100000      0.0000000E+00
   1.110000      0.0000000E+00
   1.120000      0.0000000E+00
   1.130000      0.0000000E+00
   1.140000      0.0000000E+00
   1.150000      0.0000000E+00
   1.160000      0.0000000E+00
   1.170000      0.0000000E+00
   1.180000      0.0000000E+00
   1.190000      0.0000000E+00
   1.200000      0.0000000E+00
   1.210000      0.0000000E+00
   1.220000      0.0000000E+00
   1.230000      0.0000000E+00
   1.240000      0.0000000E+00
   1.250000      0.0000000E+00
   1.260000      0.0000000E+00
   1.270000      0.0000000E+00
   1.280000      0.0000000E+00
   1.290000      0.0000000E+00
   1.300000      0.0000000E+00
   1.310000      0.0000000E+00
   1.320000      0.0000000E+00
   1.330000      0.0000000E+00
   1.340000      0.0000000E+00
   1.350000      0.0000000E+00
   1.360000      0.0000000E+00
   1.370000      0.0000000E+00
   1.380000      0.0000000E+00
   1.390000      0.0000000E+00
   1.400000      0.0000000E+00
   1.410000      0.0000000E+00
   1.420000      0.0000000E+00
   1.430000      0.0000000E+00
   1.440000      0.0000000E+00
   1.450000      0.0000000E+00
   1.460000      0.0000000E+00
   1.470000      0.0000000E+00
   1.480000      0.0000000E+00
   1.490000      0.0000000E+00
   1.500000      0.0000000E+00
   1.510000      0.0000000E+00
   1.520000      0.0000000E+00
   1.530000      0.0000000E+00
   1.540000      0.0000000E+00
   1.550000      0.0000000E+00
   1.560000      0.0000000E+00
   1.570000      0.0000000E+00
   1.580000      0.0000000E+00
   1.590000      0.0000000E+00
   1.600000      0.0000000E+00
   1.610000      0.0000000E+00
   1.620000      0.0000000E+00
   1.630000      0.0000000E+00
   1.640000      0.0000000E+00
   1.650000      0.0000000E+00
   1.660000      0.0000000E+00
   1.670000      0.0000000E+00
   1.680000      0.0000000E+00
   1.690000      0.0000000E+00
   1.700000      0.0000000E+00
   1.710000      0.0000000E+00
   1.720000      0.0000000E+00
   1.730000      0.0000000E+00
   1.740000      0.0000000E+00
   1.750000      0.0000000E+00
   1.760000      0.0000000E+00
   1.770000      0.0000000E+00
   1.780000      0.0000000E+00
   1.790000      0.0000000E+00
   1.800000      0.0000000E+00
   1.810000      0.0000000E+00
   1.820000      0.0000000E+00
   1.830000      0.0000000E+00
   1.840000      0.0000000E+00
   1.850000      0.0000000E+00
   1.860000      0.0000000E+00
   1.870000      0.0000000E+00
   1.880000      0.0000000E+00
   1.890000      0.0000000E+00
   1.900000      0.0000000E+00
   1.910000      0.0000000E+00
   1.920000      0.0000000E+00
   1.930000      0.0000000E+00
   1.940000      0.0000000E+00
   1.950000      0.0000000E+00
   1.960000      0.0000000E+00
   1.970000      0.0000000E+00
   1.980000      0.0000000E+00
   1.990000      0.0000000E+00
   2.000000      0.0000000E+00
   2.010000      0.0000000E+00
   2.020000      0.0000000E+00
   2.030000      0.0000000E+00
   2.040000      0.0000000E+00
   2.050000      0.0000000E+00
   2.060000      0.0000000E+00
   2.070000      0.0000000E+00
   2.080000      0.0000000E+00
   2.090000      0.0000000E+00
   2.100000      0.0000000E+00
   2.110000      0.0000000E+00
   2.120000      0.0000000E+00
   2.130000      0.0000000E+00
   2.140000      0.0000000E+00
   2.150000      0.0000000E+00
   2.160000      0.0000000E+00
   2.170000      0.0000000E+00
   2.180000      0.0000000E+00
   2.190000      0.0000000E+00
   2.200000      0.0000000E+00
   2.210000      0.0000000E+00
   2.220000      0.0000000E+00
   2.230000      0.0000000E+00
   2.240000      0.0000000E+00
   2.250000      0.0000000E+00
   2.260000      0.0000000E+00
   2.270000      0.0000000E+00
   2.280000      0.0000000E+00
   2.290000      0.0000000E+00
   2.300000      0.0000000E+00
   2.310000      0.0000000E+00
   2.320000      0.0000000E+00
   2.330000      0.0000000E+00
   2.340000      0.0000000E+00
   2.350000      0.0000000E+00
   2.360000      0.0000000E+00
   2.370000      0.0000000E+00
   2.380000      0.0000000E+00
   2.390000      0.0000000E+00
   2.400000      0.0000000E+00
   2.410000      0.0000000E+00
   2.420000      0.0000000E+00
   2.430000      0.0000000E+00
   2.440000      0.0000000E+00
   2.450000      0.0000000E+00
   2.460000      0.0000000E+00
   2.470000      0.0000000E+00
   2.480000      0.0000000E+00
   2.490000      0.0000000E+00
   2.500000     -1.4677762E-38
   2.510000     -2.3800522E-38
   2.520000     -3.3669592E-38
   2.530000     -4.4345539E-38
   2.540000     -5.5896641E-38
   2.550000     -5.5305719E-38
   2.560000     -4.0620879E-38
   2.570000     -2.4440946E-38
   2.580000      0.0000000E+00
   2.590000      0.0000000E+00
   2.600000      0.0000000E+00
   2.610000      1.3908452E-38
   2.620000      0.0000000E+00
   2.630000     -3.2688653E-38
   2.640000     -5.1968729E-38
   2.650000     -5.7384691E-38
   2.660000     -5.9837204E-38
   2.670000     -5.8731087E-38
   2.680000     -5.7145887E-38
   2.690000     -5.6333908E-38
   2.700000     -5.6213122E-38
   2.710000     -3.5159487E-38
   2.720000      0.0000000E+00
   2.730000      4.4947853E-38
   2.740000      6.7335127E-38
   2.750000      6.9703674E-38
   2.760000      6.9311978E-38
   2.770000      7.2131143E-38
   2.780000      7.8063176E-38
   2.790000      9.2192143E-38
   2.800000      1.1963196E-37
   2.810000      1.5366717E-37
   2.820000      1.8996168E-37
   2.830000      2.2902075E-37
   2.840000      2.6960267E-37
   2.850000      3.1732206E-37
   2.860000      3.8779009E-37
   2.870000      4.5671725E-37
   2.880000      5.0716996E-37
   2.890000      5.5898441E-37
   2.900000      6.0408188E-37
   2.910000      6.2988523E-37
   2.920000      6.3926478E-37
   2.930000      6.4879720E-37
   2.940000      6.6001059E-37
   2.950000      6.7333844E-37
   2.960000      6.4651696E-37
   2.970000      5.8150272E-37
   2.980000      5.2335417E-37
   2.990000      4.6450452E-37
   3.000000      3.8118251E-37
   3.010000      3.0676854E-37
   3.020000      2.6609055E-37
   3.030000      1.4484513E-37
   3.040000     -7.7205761E-38
   3.050000     -4.2251992E-37
   3.060000     -8.9725262E-37
   3.070000     -1.4343366E-36
   3.080000     -2.0362807E-36
   3.090000     -2.6939928E-36
   3.100000     -3.3399910E-36
   3.110000     -3.4714345E-36
   3.120000     -3.0693331E-36
   3.130000     -2.5558837E-36
   3.140000     -2.0357139E-36
   3.150000     -1.6884313E-36
   3.160000     -1.5253015E-36
   3.170000     -1.5398413E-36
   3.180000     -2.1901413E-36
   3.190000     -3.3536027E-36
   3.200000     -4.5290024E-36
   3.210000     -5.7217489E-36
   3.220000     -6.8282669E-36
   3.230000     -7.3260268E-36
   3.240000     -7.0406336E-36
   3.250000     -6.4360999E-36
   3.260000     -5.0402657E-36
   3.270000     -2.9838601E-36
   3.280000     -9.2086394E-37
   3.290000      1.0819857E-36
   3.300000      2.5684892E-36
   3.310000      3.7024173E-36
   3.320000      4.5509256E-36
   3.330000      3.7546100E-36
   3.340000      1.4386143E-36
   3.350000     -9.6127335E-37
   3.360000     -2.9813773E-36
   3.370000     -4.4376820E-36
   3.380000     -4.1091301E-36
   3.390000     -2.1499637E-36
   3.400000      1.3837783E-38
   3.410000      2.5759385E-36
   3.420000      6.3470754E-36
   3.430000      1.1227116E-35
   3.440000      1.5665458E-35
   3.450000      1.9600042E-35
   3.460000      2.3960435E-35
   3.470000      2.7931364E-35
   3.480000      3.1446543E-35
   3.490000      3.4163430E-35
   3.500000      3.5107175E-35
   3.510000      3.4916587E-35
   3.520000      3.3420174E-35
   3.530000      3.0878687E-35
   3.540000      2.8437011E-35
   3.550000      2.6408212E-35
   3.560000      2.4840299E-35
   3.570000      2.4481765E-35
   3.580000      2.5847798E-35
   3.590000      2.9333543E-35
   3.600000      3.5113471E-35
   3.610000      4.2137716E-35
   3.620000      4.9981584E-35
   3.630000      5.7768700E-35
   3.640000      6.4509247E-35
   3.650000      7.0143154E-35
   3.660000      7.3617853E-35
   3.670000      7.4325549E-35
   3.680000      7.0910658E-35
   3.690000      6.3318239E-35
   3.700000      5.4263012E-35
   3.710000      4.4417242E-35
   3.720000      3.4201737E-35
   3.730000      2.3512464E-35
   3.740000      1.2759364E-35
   3.750000      3.7208949E-36
   3.760000     -1.2119167E-36
   3.770000     -2.9664713E-36
   3.780000     -4.9754919E-36
   3.790000     -7.2928311E-36
   3.800000     -1.0224654E-35
   3.810000     -1.3692769E-35
   3.820000     -1.7710805E-35
   3.830000     -2.3824309E-35
   3.840000     -3.2551869E-35
   3.850000     -4.4344971E-35
   3.860000     -6.0267136E-35
   3.870000     -8.0162763E-35
   3.880000     -1.0301976E-34
   3.890000     -1.2736065E-34
   3.900000     -1.5133422E-34
   3.910000     -1.7279047E-34
   3.920000     -1.9190359E-34
   3.930000     -2.1012467E-34
   3.940000     -2.2790912E-34
   3.950000     -2.4480577E-34
   3.960000     -2.6066695E-34
   3.970000     -2.7920544E-34
   3.980000     -3.0550634E-34
   3.990000     -3.3429142E-34
   4.000000     -3.5974290E-34
   4.010000     -3.8406018E-34
   4.020000     -3.9922754E-34
   4.030000     -4.0366187E-34
   4.040000     -4.0485504E-34
   4.050000     -4.0580457E-34
   4.060000     -4.0468285E-34
   4.070000     -3.8920145E-34
   4.080000     -3.6263498E-34
   4.090000     -3.3681681E-34
   4.100000     -3.1679091E-34
   4.110000     -3.0241436E-34
   4.120000     -3.0325291E-34
   4.130000     -3.1148865E-34
   4.140000     -3.1538158E-34
   4.150000     -3.2466245E-34
   4.160000     -3.3663695E-34
   4.170000     -3.4200717E-34
   4.180000     -3.3264219E-34
   4.190000     -3.0940618E-34
   4.200000     -2.7235205E-34
   4.210000     -2.1686617E-34
   4.220000     -1.3901110E-34
   4.230000     -4.5638545E-35
   4.240000      6.3249247E-35
   4.250000      1.7737893E-34
   4.260000      2.8531544E-34
   4.270000      3.8695033E-34
   4.280000      4.7282676E-34
   4.290000      5.4403757E-34
   4.300000      6.1897561E-34
   4.310000      6.9785229E-34
   4.320000      7.7246757E-34
   4.330000      8.5142525E-34
   4.340000      9.3602586E-34
   4.350000      1.0162575E-33
   4.360000      1.0900216E-33
   4.370000      1.1759628E-33
   4.380000      1.2839294E-33
   4.390000      1.4143875E-33
   4.400000      1.5704988E-33
   4.410000      1.7378297E-33
   4.420000      1.8964212E-33
   4.430000      2.0427879E-33
   4.440000      2.1806463E-33
   4.450000      2.3115814E-33
   4.460000      2.4326380E-33
   4.470000      2.5296486E-33
   4.480000      2.5946738E-33
   4.490000      2.6307011E-33
   4.500000      2.6425104E-33
   4.510000      2.6375327E-33
   4.520000      2.6194178E-33
   4.530000      2.5929098E-33
   4.540000      2.5625143E-33
   4.550000      2.5290151E-33
   4.560000      2.4938552E-33
   4.570000      2.4546421E-33
   4.580000      2.4115865E-33
   4.590000      2.3524915E-33
   4.600000      2.2549043E-33
   4.610000      2.1297974E-33
   4.620000      1.9776783E-33
   4.630000      1.7743459E-33
   4.640000      1.5231431E-33
   4.650000      1.2354371E-33
   4.660000      9.0278462E-34
   4.670000      5.1861139E-34
   4.680000      8.1476934E-35
   4.690000     -4.0271376E-34
   4.700000     -9.2261659E-34
   4.710000     -1.4742501E-33
   4.720000     -2.0578402E-33
   4.730000     -2.6648321E-33
   4.740000     -3.2860416E-33
   4.750000     -3.9265923E-33
   4.760000     -4.5918086E-33
   4.770000     -5.2915771E-33
   4.780000     -6.0331370E-33
   4.790000     -6.8145634E-33
   4.800000     -7.6420658E-33
   4.810000     -8.5200426E-33
   4.820000     -9.4453300E-33
   4.830000     -1.0414322E-32
   4.840000     -1.1420343E-32
   4.850000     -1.2454189E-32
   4.860000     -1.3505131E-32
   4.870000     -1.4561798E-32
   4.880000     -1.5611923E-32
   4.890000     -1.6643823E-32
   4.900000     -1.7647160E-32
   4.910000     -1.8613161E-32
   4.920000     -1.9535670E-32
   4.930000     -2.0410114E-32
   4.940000     -2.1233276E-32
   4.950000     -2.2002402E-32
   4.960000     -2.2714789E-32
   4.970000     -2.3366747E-32
   4.980000     -2.3952299E-32
   4.990000     -2.4463144E-32
   5.000000     -2.4887890E-32
   5.010000     -2.5212103E-32
   5.020000     -2.5418728E-32
   5.030000     -2.5488356E-32
   5.040000     -2.5400296E-32
   5.050000     -2.5133647E-32
   5.060000     -2.4667623E-32
   5.070000     -2.3982705E-32
   5.080000     -2.3061808E-32
   5.090000     -2.1890134E-32
   5.100000     -2.0455256E-32
   5.110000     -1.8746744E-32
   5.120000     -1.6755745E-32
   5.130000     -1.4474285E-32
   5.140000     -1.1894273E-32
   5.150000     -9.0067178E-33
   5.160000     -5.8012645E-33
   5.170000     -2.2658216E-33
   5.180000      1.6143429E-33
   5.190000      5.8538065E-33
   5.200000      1.0467994E-32
   5.210000      1.5473826E-32
   5.220000      2.0886289E-32
   5.230000      2.6718146E-32
   5.240000      3.2978376E-32
   5.250000      3.9672790E-32
   5.260000      4.6802493E-32
   5.270000      5.4362688E-32
   5.280000      6.2342055E-32
   5.290000      7.0729383E-32
   5.300000      7.9509680E-32
   5.310000      8.8660339E-32
   5.320000      9.8158645E-32
   5.330000      1.0798024E-31
   5.340000      1.1809935E-31
   5.350000      1.2848921E-31
   5.360000      1.3912153E-31
   5.370000      1.4996605E-31
   5.380000      1.6098957E-31
   5.390000      1.7215479E-31
   5.400000      1.8341926E-31
   5.410000      1.9473424E-31
   5.420000      2.0604380E-31
   5.430000      2.1728407E-31
   5.440000      2.2838301E-31
   5.450000      2.3926047E-31
   5.460000      2.4982873E-31
   5.470000      2.5999302E-31
   5.480000      2.6965246E-31
   5.490000      2.7870115E-31
   5.500000      2.8702908E-31
   5.510000      2.9452267E-31
   5.520000      3.0106552E-31
   5.530000      3.0653843E-31
   5.540000      3.1081902E-31
   5.550000      3.1378155E-31
   5.560000      3.1529629E-31
   5.570000      3.1522870E-31
   5.580000      3.1343870E-31
   5.590000      3.0978040E-31
   5.600000      3.0410168E-31
   5.610000      2.9624454E-31
   5.620000      2.8604564E-31
   5.630000      2.7333725E-31
   5.640000      2.5794855E-31
   5.650000      2.3970725E-31
   5.660000      2.1844129E-31
   5.670000      1.9398063E-31
   5.680000      1.6615874E-31
   5.690000      1.3481386E-31
   5.700000      9.9790349E-32
   5.710000      6.0939449E-32
   5.720000      1.8119888E-32
   5.730000     -2.8801783E-32
   5.740000     -7.9950690E-32
   5.750000     -1.3544337E-31
   5.760000     -1.9538730E-31
   5.770000     -2.5987975E-31
   5.780000     -3.2900742E-31
   5.790000     -4.0284281E-31
   5.800000     -4.8144355E-31
   5.810000     -5.6485127E-31
   5.820000     -6.5308693E-31
   5.830000     -7.4614894E-31
   5.840000     -8.4400983E-31
   5.850000     -9.4661413E-31
   5.860000     -1.0538753E-30
   5.870000     -1.1656738E-30
   5.880000     -1.2818554E-30
   5.890000     -1.4022297E-30
   5.900000     -1.5265682E-30
   5.910000     -1.6546038E-30
   5.920000     -1.7860301E-30
   5.930000     -1.9204999E-30
   5.940000     -2.0576235E-30
   5.950000     -2.1969688E-30
   5.960000     -2.3380579E-30
   5.970000     -2.4803661E-30
   5.980000     -2.6233197E-30
   5.990000     -2.7662922E-30
   6.000000     -2.9086035E-30
   6.010000     -3.0495165E-30
   6.020000     -3.1882348E-30
   6.030000     -3.3239027E-30
   6.040000     -3.4556002E-30
   6.050000     -3.5823463E-30
   6.060000     -3.7030957E-30
   6.070000     -3.8167418E-30
   6.080000     -3.9221150E-30
   6.090000     -4.0179841E-30
   6.100000     -4.1030598E-30
   6.110000     -4.1759935E-30
   6.120000     -4.2353802E-30
   6.130000     -4.2797613E-30
   6.140000     -4.3076233E-30
   6.150000     -4.3174027E-30
   6.160000     -4.3074860E-30
   6.170000     -4.2762130E-30
   6.180000     -4.2218799E-30
   6.190000     -4.1427415E-30
   6.200000     -4.0370159E-30
   6.210000     -3.9028899E-30
   6.220000     -3.7385227E-30
   6.230000     -3.5420549E-30
   6.240000     -3.3116147E-30
   6.250000     -3.0453252E-30
   6.260000     -2.7413151E-30
   6.270000     -2.3977282E-30
   6.280000     -2.0127324E-30
   6.290000     -1.5845295E-30
   6.300000     -1.1113671E-30
   6.310000     -5.9155004E-31
   6.320000     -2.3450657E-32
   6.330000      5.9447839E-31
   6.340000      1.2636930E-30
   6.350000      1.9855439E-30
   6.360000      2.7612627E-30
   6.370000      3.5919470E-30
   6.380000      4.4785455E-30
   6.390000      5.4218426E-30
   6.400000      6.4224392E-30
   6.410000      7.4807355E-30
   6.420000      8.5969134E-30
   6.430000      9.7709137E-30
   6.440000      1.1002416E-29
   6.450000      1.2290824E-29
   6.460000      1.3635238E-29
   6.470000      1.5034435E-29
   6.480000      1.6486853E-29
   6.490000      1.7990560E-29
   6.500000      1.9543251E-29
   6.510000      2.1142206E-29
   6.520000      2.2784288E-29
   6.530000      2.4465914E-29
   6.540000      2.6183039E-29
   6.550000      2.7931127E-29
   6.560000      2.9705149E-29
   6.570000      3.1499556E-29
   6.580000      3.3308254E-29
   6.590000      3.5124593E-29
   6.600000      3.6941353E-29
   6.610000      3.8750719E-29
   6.620000      4.0544271E-29
   6.630000      4.2312979E-29
   6.640000      4.4047176E-29
   6.650000      4.5736557E-29
   6.660000      4.7370173E-29
   6.670000      4.8936426E-29
   6.680000      5.0423073E-29
   6.690000      5.1817217E-29
   6.700000      5.3105315E-29
   6.710000      5.4273175E-29
   6.720000      5.5305991E-29
   6.730000      5.6188326E-29
   6.740000      5.6904128E-29
   6.750000      5.7436780E-29
   6.760000      5.7769093E-29
   6.770000      5.7883319E-29
   6.780000      5.7761221E-29
   6.790000      5.7384082E-29
   6.800000      5.6732762E-29
   6.810000      5.5787715E-29
   6.820000      5.4529071E-29
   6.830000      5.2936676E-29
   6.840000      5.0990175E-29
   6.850000      4.8669041E-29
   6.860000      4.5952704E-29
   6.870000      4.2820579E-29
   6.880000      3.9252168E-29
   6.890000      3.5227161E-29
   6.900000      3.0725546E-29
   6.910000      2.5727686E-29
   6.920000      2.0214421E-29
   6.930000      1.4167223E-29
   6.940000      7.5682750E-30
   6.950000      4.0063871E-31
   6.960000     -7.3516432E-30
   6.970000     -1.5703395E-29
   6.980000     -2.4668141E-29
   6.990000     -3.4257972E-29
   7.000000     -4.4483387E-29
   7.010000     -5.5353104E-29
   7.020000     -6.6873927E-29
   7.030000     -7.9050541E-29
   7.040000     -9.1885347E-29
   7.050000     -1.0537827E-28
   7.060000     -1.1952657E-28