  -2.600000      0.0000000E+00
  -2.590000      0.0000000E+00
  -2.580000      0.0000000E+00
  -2.570000      0.0000000E+00
  -2.560000      0.0000000E+00
  -2.550000      0.0000000E+00
  -2.540000      0.0000000E+00
  -2.530000      0.0000000E+00
  -2.520000      0.0000000E+00
  -2.510000      0.0000000E+00
  -2.500000      0.0000000E+00
  -2.490000      0.0000000E+00
  -2.480000      0.0000000E+00
  -2.470000      0.0000000E+00
  -2.460000      0.0000000E+00
  -2.450000      0.0000000E+00
  -2.440000      0.0000000E+00
  -2.430000      0.0000000E+00
  -2.420000      0.0000000E+00
  -2.410000      0.0000000E+00
  -2.400000      0.0000000E+00
  -2.390000      0.0000000E+00
  -2.380000      0.0000000E+00
  -2.370000      0.0000000E+00
  -2.360000      0.0000000E+00
  -2.350000      0.0000000E+00
  -2.340000      0.0000000E+00
  -2.330000      0.0000000E+00
  -2.320000      0.0000000E+00
  -2.310000      0.0000000E+00
  -2.300000      0.0000000E+00
  -2.290000      0.0000000E+00
  -2.280000      0.0000000E+00
  -2.270000      0.0000000E+00
  -2.260000      0.0000000E+00
  -2.250000      0.0000000E+00
  -2.240000      0.0000000E+00
  -2.230000      0.0000000E+00
  -2.220000      0.0000000E+00
  -2.210000      0.0000000E+00
  -2.200000      0.0000000E+00
  -2.190000      0.0000000E+00
  -2.180000      0.0000000E+00
  -2.170000      0.0000000E+00
  -2.160000      0.0000000E+00
  -2.150000      0.0000000E+00
  -2.140000      0.0000000E+00
  -2.130000      0.0000000E+00
  -2.120000      0.0000000E+00
  -2.110000      0.0000000E+00
  -2.100000      0.0000000E+00
  -2.090000      0.0000000E+00
  -2.080000      0.0000000E+00
  -2.070000      0.0000000E+00
  -2.060000      0.0000000E+00
  -2.050000      0.0000000E+00
  -2.040000      0.0000000E+00
  -2.030000      0.0000000E+00
  -2.020000      0.0000000E+00
  -2.010000      0.0000000E+00
  -2.000000      0.0000000E+00
  -1.990000      0.0000000E+00
  -1.980000      0.0000000E+00
  -1.970000      0.0000000E+00
  -1.960000      0.0000000E+00
  -1.950000      0.0000000E+00
  -1.940000      0.0000000E+00
  -1.930000      0.0000000E+00
  -1.920000      0.0000000E+00
  -1.910000      0.0000000E+00
  -1.900000      0.0000000E+00
  -1.890000      0.0000000E+00
  -1.880000      0.0000000E+00
  -1.870000      0.0000000E+00
  -1.860000      0.0000000E+00
  -1.850000      0.0000000E+00
  -1.840000      0.0000000E+00
  -1.830000      0.0000000E+00
  -1.820000      0.0000000E+00
  -1.810000      0.0000000E+00
  -1.800000      0.0000000E+00
  -1.790000      0.0000000E+00
  -1.780000      0.0000000E+00
  -1.770000      0.0000000E+00
  -1.760000      0.0000000E+00
  -1.750000      0.0000000E+00
  -1.740000      0.0000000E+00
  -1.730000      0.0000000E+00
  -1.720000      0.0000000E+00
  -1.710000      0.0000000E+00
  -1.700000      0.0000000E+00
  -1.690000      0.0000000E+00
  -1.680000      0.0000000E+00
  -1.670000      0.0000000E+00
  -1.660000      0.0000000E+00
  -1.650000      0.0000000E+00
  -1.640000      0.0000000E+00
  -1.630000      0.0000000E+00
  -1.620000      0.0000000E+00
  -1.610000      0.0000000E+00
  -1.600000      0.0000000E+00
  -1.590000      0.0000000E+00
  -1.580000      0.0000000E+00
  -1.570000      0.0000000E+00
  -1.560000      0.0000000E+00
  -1.550000      0.0000000E+00
  -1.540000      0.0000000E+00
  -1.530000      0.0000000E+00
  -1.520000      0.0000000E+00
  -1.510000      0.0000000E+00
  -1.500000      0.0000000E+00
  -1.490000      0.0000000E+00
  -1.480000      0.0000000E+00
  -1.470000      0.0000000E+00
  -1.460000      0.0000000E+00
  -1.450000      0.0000000E+00
  -1.440000      0.0000000E+00
  -1.430000      0.0000000E+00
  -1.420000      0.0000000E+00
  -1.410000      0.0000000E+00
  -1.400000      0.0000000E+00
  -1.390000      0.0000000E+00
  -1.380000      0.0000000E+00
  -1.370000      0.0000000E+00
  -1.360000      0.0000000E+00
  -1.350000      0.0000000E+00
  -1.340000      0.0000000E+00
  -1.330000      0.0000000E+00
  -1.320000      0.0000000E+00
  -1.310000      0.0000000E+00
  -1.300000      0.0000000E+00
  -1.290000      0.0000000E+00
  -1.280000      0.0000000E+00
  -1.270000      0.0000000E+00
  -1.260000      0.0000000E+00
  -1.250000      0.0000000E+00
  -1.240000      0.0000000E+00
  -1.230000      0.0000000E+00
  -1.220000      0.0000000E+00
  -1.210000      0.0000000E+00
  -1.200000      0.0000000E+00
  -1.190000      0.0000000E+00
  -1.180000      0.0000000E+00
  -1.170000      0.0000000E+00
  -1.160000      0.0000000E+00
  -1.150000      0.0000000E+00
  -1.140000      0.0000000E+00
  -1.130000      0.0000000E+00
  -1.120000      0.0000000E+00
  -1.110000      0.0000000E+00
  -1.100000      0.0000000E+00
  -1.090000      0.0000000E+00
  -1.080000      0.0000000E+00
  -1.070000      0.0000000E+00
  -1.060000      0.0000000E+00
  -1.050000      0.0000000E+00
  -1.040000      0.0000000E+00
  -1.030000      0.0000000E+00
  -1.020000      0.0000000E+00
  -1.010000      0.0000000E+00
  -1.000000      0.0000000E+00
 -0.9900000      0.0000000E+00
 -0.9800000      0.0000000E+00
 -0.9700000      0.0000000E+00
 -0.9600000      0.0000000E+00
 -0.9500000      0.0000000E+00
 -0.9400000      0.0000000E+00
 -0.9300000      0.0000000E+00
 -0.9200000      0.0000000E+00
 -0.9100000      0.0000000E+00
 -0.9000000      0.0000000E+00
 -0.8900000      0.0000000E+00
 -0.8800000      0.0000000E+00
 -0.8700000      0.0000000E+00
 -0.8600000      0.0000000E+00
 -0.8500000      0.0000000E+00
 -0.8400000      0.0000000E+00
 -0.8300000      0.0000000E+00
 -0.8200000      0.0000000E+00
 -0.8100000      0.0000000E+00
 -0.8000000      0.0000000E+00
 -0.7900000      0.0000000E+00
 -0.7800000      0.0000000E+00
 -0.7700000      0.0000000E+00
 -0.7600000      0.0000000E+00
 -0.7500000      0.0000000E+00
 -0.7400000      0.0000000E+00
 -0.7300000      0.0000000E+00
 -0.7200000      0.0000000E+00
 -0.7100000      0.0000000E+00
 -0.7000000      0.0000000E+00
 -0.6900000      0.0000000E+00
 -0.6800000      0.0000000E+00
 -0.6700000      0.0000000E+00
 -0.6600000      0.0000000E+00
 -0.6500000      0.0000000E+00
 -0.6400000      0.0000000E+00
 -0.6300000      0.0000000E+00
 -0.6200000      0.0000000E+00
 -0.6100000      0.0000000E+00
 -0.6000000      0.0000000E+00
 -0.5900000      0.0000000E+00
 -0.5800000      0.0000000E+00
 -0.5700000      0.0000000E+00
 -0.5600000      0.0000000E+00
 -0.5500000      0.0000000E+00
 -0.5400000      0.0000000E+00
 -0.5300000      0.0000000E+00
 -0.5200000      0.0000000E+00
 -0.5100000      0.0000000E+00
 -0.5000000      0.0000000E+00
 -0.4900000      0.0000000E+00
 -0.4800000      0.0000000E+00
 -0.4700000      0.0000000E+00
 -0.4600000      0.0000000E+00
 -0.4500000      0.0000000E+00
 -0.4400000      0.0000000E+00
 -0.4300000      0.0000000E+00
 -0.4200000      0.0000000E+00
 -0.4100000      0.0000000E+00
 -0.4000000      0.0000000E+00
 -0.3900000      0.0000000E+00
 -0.3800000      0.0000000E+00
 -0.3700000      0.0000000E+00
 -0.3600000      0.0000000E+00
 -0.3500000      0.0000000E+00
 -0.3400000      0.0000000E+00
 -0.3300000      0.0000000E+00
 -0.3200000      0.0000000E+00
 -0.3100000      0.0000000E+00
 -0.3000000      0.0000000E+00
 -0.2900000      0.0000000E+00
 -0.2800000      0.0000000E+00
 -0.2700000      0.0000000E+00
 -0.2600000      0.0000000E+00
 -0.2500000      0.0000000E+00
 -0.2400000      0.0000000E+00
 -0.2300000      0.0000000E+00
 -0.2200000      0.0000000E+00
 -0.2100000      0.0000000E+00
 -0.2000000      0.0000000E+00
 -0.1900000      0.0000000E+00
 -0.1800000      0.0000000E+00
 -0.1700000      0.0000000E+00
 -0.1600000      0.0000000E+00
 -0.1500000      0.0000000E+00
 -0.1400000      0.0000000E+00
 -0.1300000      0.0000000E+00
 -0.1200000      0.0000000E+00
 -0.1100000      0.0000000E+00
 -0.1000000      0.0000000E+00
 -9.0000004E-02  0.0000000E+00
 -7.9999998E-02  0.0000000E+00
 -7.0000000E-02  0.0000000E+00
 -5.9999999E-02  0.0000000E+00
 -5.0000001E-02  0.0000000E+00
 -3.9999999E-02  0.0000000E+00
 -2.9999999E-02  0.0000000E+00
 -2.0000000E-02  0.0000000E+00
 -9.9999998E-03  0.0000000E+00
 -3.4694470E-17  0.0000000E+00
  9.9999998E-03  0.0000000E+00
  2.0000000E-02  0.0000000E+00
  2.9999999E-02  0.0000000E+00
  3.9999999E-02  0.0000000E+00
  5.0000001E-02  0.0000000E+00
  5.9999999E-02  0.0000000E+00
  7.0000000E-02  0.0000000E+00
  7.9999998E-02  0.0000000E+00
  9.0000004E-02  0.0000000E+00
  0.1000000      0.0000000E+00
  0.1100000      0.0000000E+00
  0.1200000      0.0000000E+00
  0.1300000      0.0000000E+00
  0.1400000      0.0000000E+00
  0.1500000      0.0000000E+00
  0.1600000      0.0000000E+00
  0.1700000      0.0000000E+00
  0.1800000      0.0000000E+00
  0.1900000      0.0000000E+00
  0.2000000      0.0000000E+00
  0.2100000      0.0000000E+00
  0.2200000      0.0000000E+00
  0.2300000      0.0000000E+00
  0.2400000      0.0000000E+00
  0.2500000      0.0000000E+00
  0.2600000      0.0000000E+00
  0.2700000      0.0000000E+00
  0.2800000      0.0000000E+00
  0.2900000      0.0000000E+00
  0.3000000      0.0000000E+00
  0.3100000      0.0000000E+00
  0.3200000      0.0000000E+00
  0.3300000      0.0000000E+00
  0.3400000      0.0000000E+00
  0.3500000      0.0000000E+00
  0.3600000      0.0000000E+00
  0.3700000      0.0000000E+00
  0.3800000      0.0000000E+00
  0.3900000      0.0000000E+00
  0.4000000      0.0000000E+00
  0.4100000      0.0000000E+00
  0.4200000      0.0000000E+00
  0.4300000      0.0000000E+00
  0.4400000      0.0000000E+00
  0.4500000      0.0000000E+00
  0.4600000      0.0000000E+00
  0.4700000      0.0000000E+00
  0.4800000      0.0000000E+00
  0.4900000      0.0000000E+00
  0.5000000      0.0000000E+00
  0.5100000      0.0000000E+00
  0.5200000      0.0000000E+00
  0.5300000      0.0000000E+00
  0.5400000      0.0000000E+00
  0.5500000      0.0000000E+00
  0.5600000      0.0000000E+00
  0.5700000      0.0000000E+00
  0.5800000      0.0000000E+00
  0.5900000      0.0000000E+00
  0.6000000      0.0000000E+00
  0.6100000      0.0000000E+00
  0.6200000      0.0000000E+00
  0.6300000      0.0000000E+00
  0.6400000      0.0000000E+00
  0.6500000      0.0000000E+00
  0.6600000      0.0000000E+00
  0.6700000      0.0000000E+00
  0.6800000      0.0000000E+00
  0.6900000      0.0000000E+00
  0.7000000      0.0000000E+00
  0.7100000      0.0000000E+00
  0.7200000      0.0000000E+00
  0.7300000      0.0000000E+00
  0.7400000      0.0000000E+00
  0.7500000      0.0000000E+00
  0.7600000      0.0000000E+00
  0.7700000      0.0000000E+00
  0.7800000      0.0000000E+00
  0.7900000      0.0000000E+00
  0.8000000      0.0000000E+00
  0.8100000      0.0000000E+00
  0.8200000      0.0000000E+00
  0.8300000      0.0000000E+00
  0.8400000      0.0000000E+00
  0.8500000      0.0000000E+00
  0.8600000      0.0000000E+00
  0.8700000      0.0000000E+00
  0.8800000      0.0000000E+00
  0.8900000      0.0000000E+00
  0.9000000      0.0000000E+00
  0.9100000      0.0000000E+00
  0.9200000      0.0000000E+00
  0.9300000      0.0000000E+00
  0.9400000      0.0000000E+00
  0.9500000      0.0000000E+00
  0.9600000      0.0000000E+00
  0.9700000      0.0000000E+00
  0.9800000      0.0000000E+00
  0.9900000      0.0000000E+00
   1.000000      0.0000000E+00
   1.010000      0.0000000E+00
   1.020000      0.0000000E+00
   1.030000      0.0000000E+00
   1.040000      0.0000000E+00
   1.050000      0.0000000E+00
   1.060000      0.0000000E+00
   1.070000      0.0000000E+00
   1.080000      0.0000000E+00
   1.090000      0.0000000E+00
   1.100000      0.0000000E+00
   1.110000      0.0000000E+00
   1.120000      0.0000000E+00
   1.130000      0.0000000E+00
   1.140000      0.0000000E+00
   1.150000      0.0000000E+00
   1.160000      0.0000000E+00
   1.170000      0.0000000E+00
   1.180000      0.0000000E+00
   1.190000      0.0000000E+00
   1.200000      0.0000000E+00
   1.210000      0.0000000E+00
   1.220000      0.0000000E+00
   1.230000      0.0000000E+00
   1.240000      0.0000000E+00
   1.250000      0.0000000E+00
   1.260000      0.0000000E+00
   1.270000      0.0000000E+00
   1.280000      0.0000000E+00
   1.290000      0.0000000E+00
   1.300000      0.0000000E+00
   1.310000      0.0000000E+00
   1.320000      0.0000000E+00
   1.330000      0.0000000E+00
   1.340000      0.0000000E+00
   1.350000      0.0000000E+00
   1.360000      0.0000000E+00
   1.370000      0.0000000E+00
   1.380000      0.0000000E+00
   1.390000      0.0000000E+00
   1.400000      0.0000000E+00
   1.410000      0.0000000E+00
   1.420000      0.0000000E+00
   1.430000      0.0000000E+00
   1.440000      0.0000000E+00
   1.450000      0.0000000E+00
   1.460000      0.0000000E+00
   1.470000      0.0000000E+00
   1.480000      0.0000000E+00
   1.490000      0.0000000E+00
   1.500000      0.0000000E+00
   1.510000      0.0000000E+00
   1.520000      0.0000000E+00
   1.530000      0.0000000E+00
   1.540000      0.0000000E+00
   1.550000      0.0000000E+00
   1.560000      0.0000000E+00
   1.570000      0.0000000E+00
   1.580000      0.0000000E+00
   1.590000      0.0000000E+00
   1.600000      0.0000000E+00
   1.610000      0.0000000E+00
   1.620000      0.0000000E+00
   1.630000      0.0000000E+00
   1.640000      0.0000000E+00
   1.650000      0.0000000E+00
   1.660000      0.0000000E+00
   1.670000      0.0000000E+00
   1.680000      0.0000000E+00
   1.690000      0.0000000E+00
   1.700000      0.0000000E+00
   1.710000      0.0000000E+00
   1.720000      0.0000000E+00
   1.730000      0.0000000E+00
   1.740000      0.0000000E+00
   1.750000      0.0000000E+00
   1.760000      0.0000000E+00
   1.770000      0.0000000E+00
   1.780000      0.0000000E+00
   1.790000      0.0000000E+00
   1.800000      0.0000000E+00
   1.810000      0.0000000E+00
   1.820000      0.0000000E+00
   1.830000      0.0000000E+00
   1.840000      0.0000000E+00
   1.850000      0.0000000E+00
   1.860000      0.0000000E+00
   1.870000      0.0000000E+00
   1.880000      0.0000000E+00
   1.890000      0.0000000E+00
   1.900000      0.0000000E+00
   1.910000      0.0000000E+00
   1.920000      0.0000000E+00
   1.930000      0.0000000E+00
   1.940000      0.0000000E+00
   1.950000      0.0000000E+00
   1.960000      0.0000000E+00
   1.970000      0.0000000E+00
   1.980000      0.0000000E+00
   1.990000      0.0000000E+00
   2.000000      0.0000000E+00
   2.010000      0.0000000E+00
   2.020000      0.0000000E+00
   2.030000      0.0000000E+00
   2.040000      0.0000000E+00
   2.050000      0.0000000E+00
   2.060000      0.0000000E+00
   2.070000      0.0000000E+00
   2.080000      0.0000000E+00
   2.090000      0.0000000E+00
   2.100000      0.0000000E+00
   2.110000      0.0000000E+00
   2.120000      0.0000000E+00
   2.130000      0.0000000E+00
   2.140000      0.0000000E+00
   2.150000      0.0000000E+00
   2.160000      0.0000000E+00
   2.170000      0.0000000E+00
   2.180000      0.0000000E+00
   2.190000      0.0000000E+00
   2.200000      0.0000000E+00
   2.210000      0.0000000E+00
   2.220000      0.0000000E+00
   2.230000      0.0000000E+00
   2.240000      0.0000000E+00
   2.250000      0.0000000E+00
   2.260000      0.0000000E+00
   2.270000      0.0000000E+00
   2.280000      0.0000000E+00
   2.290000      0.0000000E+00
   2.300000      0.0000000E+00
   2.310000      0.0000000E+00
   2.320000      0.0000000E+00
   2.330000      0.0000000E+00
   2.340000      0.0000000E+00
   2.350000      0.0000000E+00
   2.360000      0.0000000E+00
   2.370000      0.0000000E+00
   2.380000      0.0000000E+00
   2.390000      0.0000000E+00
   2.400000      0.0000000E+00
   2.410000      0.0000000E+00
   2.420000      0.0000000E+00
   2.430000      0.0000000E+00
   2.440000      0.0000000E+00
   2.450000      0.0000000E+00
   2.460000      0.0000000E+00
   2.470000      0.0000000E+00
   2.480000      0.0000000E+00
   2.490000      0.0000000E+00
   2.500000      0.0000000E+00
   2.510000      0.0000000E+00
   2.520000      0.0000000E+00
   2.530000      0.0000000E+00
   2.540000      0.0000000E+00
   2.550000      0.0000000E+00
   2.560000      0.0000000E+00
   2.570000      0.0000000E+00
   2.580000      0.0000000E+00
   2.590000      0.0000000E+00
   2.600000      0.0000000E+00
   2.610000      0.0000000E+00
   2.620000      0.0000000E+00
   2.630000      0.0000000E+00
   2.640000      0.0000000E+00
   2.650000      0.0000000E+00
   2.660000      0.0000000E+00
   2.670000      0.0000000E+00
   2.680000      0.0000000E+00
   2.690000      0.0000000E+00
   2.700000      0.0000000E+00
   2.710000      0.0000000E+00
   2.720000      0.0000000E+00
   2.730000      0.0000000E+00
   2.740000      0.0000000E+00
   2.750000      0.0000000E+00
   2.760000      0.0000000E+00
   2.770000      0.0000000E+00
   2.780000      0.0000000E+00
   2.790000      0.0000000E+00
   2.800000      0.0000000E+00
   2.810000      0.0000000E+00
   2.820000      0.0000000E+00
   2.830000      0.0000000E+00
   2.840000      0.0000000E+00
   2.850000      0.0000000E+00
   2.860000      0.0000000E+00
   2.870000      0.0000000E+00
   2.880000      0.0000000E+00
   2.890000      0.0000000E+00
   2.900000      0.0000000E+00
   2.910000      0.0000000E+00
   2.920000      0.0000000E+00
   2.930000      0.0000000E+00
   2.940000      0.0000000E+00
   2.950000      0.0000000E+00
   2.960000      0.0000000E+00
   2.970000      0.0000000E+00
   2.980000      0.0000000E+00
   2.990000      0.0000000E+00
   3.000000      0.0000000E+00
   3.010000      0.0000000E+00
   3.020000      0.0000000E+00
   3.030000      0.0000000E+00
   3.040000      0.0000000E+00
   3.050000      0.0000000E+00
   3.060000      0.0000000E+00
   3.070000      0.0000000E+00
   3.080000      0.0000000E+00
   3.090000      0.0000000E+00
   3.100000      0.0000000E+00
   3.110000      0.0000000E+00
   3.120000      0.0000000E+00
   3.130000      0.0000000E+00
   3.140000      0.0000000E+00
   3.150000      0.0000000E+00
   3.160000      0.0000000E+00
   3.170000      0.0000000E+00
   3.180000      0.0000000E+00
   3.190000      0.0000000E+00
   3.200000      0.0000000E+00
   3.210000      0.0000000E+00
   3.220000      0.0000000E+00
   3.230000      0.0000000E+00
   3.240000      0.0000000E+00
   3.250000      0.0000000E+00
   3.260000      0.0000000E+00
   3.270000      0.0000000E+00
   3.280000      0.0000000E+00
   3.290000     -1.1781160E-38
   3.300000     -1.4255527E-38
   3.310000     -1.6594343E-38
   3.320000     -1.8636191E-38
   3.330000     -2.0415730E-38
   3.340000     -2.2179098E-38
   3.350000     -2.4011776E-38
   3.360000     -2.5938051E-38
   3.370000     -2.8301111E-38
   3.380000     -3.1314276E-38
   3.390000     -3.4686999E-38
   3.400000     -3.8272872E-38
   3.410000     -4.2037620E-38
   3.420000     -4.5985027E-38
   3.430000     -4.9645152E-38
   3.440000     -5.2791599E-38
   3.450000     -5.5600261E-38
   3.460000     -5.7998196E-38
   3.470000     -5.9971976E-38
   3.480000     -6.1651382E-38
   3.490000     -6.3383235E-38
   3.500000     -6.5137274E-38
   3.510000     -6.6742843E-38
   3.520000     -6.8636938E-38
   3.530000     -7.0786272E-38
   3.540000     -7.2626856E-38
   3.550000     -7.4625214E-38
   3.560000     -7.6588085E-38
   3.570000     -7.7196266E-38
   3.580000     -7.6487494E-38
   3.590000     -7.4845240E-38
   3.600000     -7.1945611E-38
   3.610000     -6.7438010E-38
   3.620000     -6.1630127E-38
   3.630000     -5.4782228E-38
   3.640000     -4.5189703E-38
   3.650000     -3.1836195E-38
   3.660000     -1.5779962E-38
   3.670000      0.0000000E+00
   3.680000      2.3335029E-38
   3.690000      4.8089643E-38
   3.700000      7.3625124E-38
   3.710000      9.9680055E-38
   3.720000      1.2676516E-37
   3.730000      1.5371631E-37
   3.740000      1.7921317E-37
   3.750000      2.0452130E-37
   3.760000      2.2864344E-37
   3.770000      2.5095312E-37
   3.780000      2.8277427E-37
   3.790000      3.2510485E-37
   3.800000      3.7209680E-37
   3.810000      4.2360907E-37
   3.820000      4.7751853E-37
   3.830000      5.3549847E-37
   3.840000      6.0561187E-37
   3.850000      6.9432254E-37
   3.860000      7.9036830E-37
   3.870000      8.8679575E-37
   3.880000      9.6063875E-37
   3.890000      1.0054590E-36
   3.900000      1.0428888E-36
   3.910000      1.0713590E-36
   3.920000      1.0851010E-36
   3.930000      1.0845235E-36
   3.940000      1.0761281E-36
   3.950000      1.0660989E-36
   3.960000      1.0448594E-36
   3.970000      9.9675925E-37
   3.980000      9.3051662E-37
   3.990000      8.5352628E-37
   4.000000      7.6354668E-37
   4.010000      6.5206897E-37
   4.020000      5.2375981E-37
   4.030000      3.5310342E-37
   4.040000      1.3339486E-37
   4.050000     -8.9886862E-38
   4.060000     -2.9842355E-37
   4.070000     -5.0918437E-37
   4.080000     -7.4550302E-37
   4.090000     -1.0419627E-36
   4.100000     -1.3832631E-36
   4.110000     -1.7376856E-36
   4.120000     -2.1261038E-36
   4.130000     -2.4634113E-36
   4.140000     -2.7409868E-36
   4.150000     -3.0225724E-36
   4.160000     -3.2935344E-36
   4.170000     -3.5494344E-36
   4.180000     -3.7863571E-36
   4.190000     -3.9880454E-36
   4.200000     -4.1621827E-36
   4.210000     -4.3230078E-36
   4.220000     -4.4840729E-36
   4.230000     -4.6270457E-36
   4.240000     -4.7449995E-36
   4.250000     -4.8573623E-36
   4.260000     -4.9664654E-36
   4.270000     -4.9915491E-36
   4.280000     -4.9275082E-36
   4.290000     -4.8485429E-36
   4.300000     -4.7770386E-36
   4.310000     -4.7655699E-36
   4.320000     -4.8438084E-36
   4.330000     -4.9389420E-36
   4.340000     -4.9432623E-36
   4.350000     -4.8471320E-36
   4.360000     -4.7182585E-36
   4.370000     -4.6022756E-36
   4.380000     -4.4628762E-36
   4.390000     -4.2811527E-36
   4.400000     -4.0017924E-36
   4.410000     -3.5870109E-36
   4.420000     -3.0743145E-36
   4.430000     -2.4435085E-36
   4.440000     -1.7069300E-36
   4.450000     -8.8989771E-37
   4.460000      4.5088064E-38
   4.470000      1.1234831E-36
   4.480000      2.3253200E-36
   4.490000      3.6326973E-36
   4.500000      5.0865540E-36
   4.510000      6.7259880E-36
   4.520000      8.5053509E-36
   4.530000      1.0379754E-35
   4.540000      1.2314349E-35
   4.550000      1.4355794E-35
   4.560000      1.6546483E-35
   4.570000      1.8888864E-35
   4.580000      2.1470643E-35
   4.590000      2.4070071E-35
   4.600000      2.6574747E-35
   4.610000      2.8995637E-35
   4.620000      3.1303231E-35
   4.630000      3.3622074E-35
   4.640000      3.5712821E-35
   4.650000      3.7635354E-35
   4.660000      3.9994086E-35
   4.670000      4.2352215E-35
   4.680000      4.4256585E-35
   4.690000      4.6016859E-35
   4.700000      4.7685656E-35
   4.710000      4.9233773E-35
   4.720000      5.0354608E-35
   4.730000      5.1954135E-35
   4.740000      5.4544843E-35
   4.750000      5.7281822E-35
   4.760000      5.8702357E-35
   4.770000      5.8938374E-35
   4.780000      5.9349137E-35
   4.790000      5.9729761E-35
   4.800000      5.7097641E-35
   4.810000      5.0686656E-35
   4.820000      4.3323877E-35
   4.830000      3.5514540E-35
   4.840000      2.8188039E-35
   4.850000      2.2528223E-35
   4.860000      1.7623084E-35
   4.870000      1.2494066E-35
   4.880000      6.8815164E-36
   4.890000      3.0354946E-36
   4.900000      8.9589069E-37
   4.910000     -2.0619894E-36
   4.920000     -8.0421478E-36
   4.930000     -1.8633952E-35
   4.940000     -3.1380516E-35
   4.950000     -4.5598881E-35
   4.960000     -6.5373190E-35
   4.970000     -9.2202614E-35
   4.980000     -1.2265657E-34
   4.990000     -1.5308098E-34
   5.000000     -1.8267410E-34
   5.010000     -2.1288733E-34
   5.020000     -2.4082474E-34
   5.030000     -2.6540833E-34
   5.040000     -2.8831382E-34
   5.050000     -3.0883267E-34
   5.060000     -3.2720822E-34
   5.070000     -3.4232606E-34
   5.080000     -3.5540032E-34
   5.090000     -3.6945014E-34
   5.100000     -3.8480894E-34
   5.110000     -3.9913520E-34
   5.120000     -4.1149319E-34
   5.130000     -4.2526787E-34
   5.140000     -4.4019972E-34
   5.150000     -4.5564654E-34
   5.160000     -4.6827379E-34
   5.170000     -4.7547112E-34
   5.180000     -4.8061909E-34
   5.190000     -4.8344115E-34
   5.200000     -4.8418672E-34
   5.210000     -4.8262382E-34
   5.220000     -4.7745412E-34
   5.230000     -4.6950691E-34
   5.240000     -4.6246427E-34
   5.250000     -4.5548569E-34
   5.260000     -4.4539385E-34
   5.270000     -4.3499306E-34
   5.280000     -4.2234681E-34
   5.290000     -4.0405166E-34
   5.300000     -3.7943314E-34
   5.310000     -3.4829764E-34
   5.320000     -3.1057461E-34
   5.330000     -2.6501293E-34
   5.340000     -2.1106775E-34
   5.350000     -1.4881415E-34
   5.360000     -8.0541481E-35
   5.370000     -3.3589776E-36
   5.380000      8.7566529E-35
   5.390000      1.9292686E-34
   5.400000      3.0779123E-34
   5.410000      4.2724766E-34
   5.420000      5.5434527E-34
   5.430000      6.9051578E-34
   5.440000      8.3296466E-34
   5.450000      9.8003379E-34
   5.460000      1.1323363E-33
   5.470000      1.2894971E-33
   5.480000      1.4509681E-33
   5.490000      1.6162362E-33
   5.500000      1.7844366E-33
   5.510000      1.9568372E-33
   5.520000      2.1314365E-33
   5.530000      2.3047914E-33
   5.540000      2.4795433E-33
   5.550000      2.6567083E-33
   5.560000      2.8337483E-33
   5.570000      3.0105845E-33
   5.580000      3.1857153E-33
   5.590000      3.3632903E-33
   5.600000      3.5426307E-33
   5.610000      3.7181735E-33
   5.620000      3.8901692E-33
   5.630000      4.0575479E-33
   5.640000      4.2203201E-33
   5.650000      4.3776332E-33
   5.660000      4.5284010E-33
   5.670000      4.6705899E-33
   5.680000      4.8029674E-33
   5.690000      4.9245040E-33
   5.700000      5.0310732E-33
   5.710000      5.1197106E-33
   5.720000      5.1888763E-33
   5.730000      5.2354887E-33
   5.740000      5.2566392E-33
   5.750000      5.2501347E-33
   5.760000      5.2127584E-33
   5.770000      5.1412214E-33
   5.780000      5.0329709E-33
   5.790000      4.8850155E-33
   5.800000      4.6952683E-33
   5.810000      4.4622313E-33
   5.820000      4.1831803E-33
   5.830000      3.8559969E-33
   5.840000      3.4793696E-33
   5.850000      3.0516522E-33
   5.860000      2.5714565E-33
   5.870000      2.0376386E-33
   5.880000      1.4489740E-33
   5.890000      8.0425781E-34
   5.900000      1.0253584E-34
   5.910000     -6.5727376E-34
   5.920000     -1.4765342E-33
   5.930000     -2.3557151E-33
   5.940000     -3.2952464E-33
   5.950000     -4.2962776E-33
   5.960000     -5.3595431E-33
   5.970000     -6.4856160E-33
   5.980000     -7.6752082E-33
   5.990000     -8.9283013E-33
   6.000000     -1.0244929E-32
   6.010000     -1.1625273E-32
   6.020000     -1.3069049E-32
   6.030000     -1.4575620E-32
   6.040000     -1.6143766E-32
   6.050000     -1.7772255E-32
   6.060000     -1.9459194E-32
   6.070000     -2.1202236E-32
   6.080000     -2.2998653E-32
   6.090000     -2.4844288E-32
   6.100000     -2.6734341E-32
   6.110000     -2.8663689E-32
   6.120000     -3.0626106E-32
   6.130000     -3.2613729E-32
   6.140000     -3.4619320E-32
   6.150000     -3.6634728E-32
   6.160000     -3.8649411E-32
   6.170000     -4.0652750E-32
   6.180000     -4.2633338E-32
   6.190000     -4.4579004E-32
   6.200000     -4.6476875E-32
   6.210000     -4.8313423E-32
   6.220000     -5.0074502E-32
   6.230000     -5.1745402E-32
   6.240000     -5.3310867E-32
   6.250000     -5.4755226E-32
   6.260000     -5.6062106E-32
   6.270000     -5.7214637E-32
   6.280000     -5.8195616E-32
   6.290000     -5.8987270E-32
   6.300000     -5.9571309E-32
   6.310000     -5.9928918E-32
   6.320000     -6.0040784E-32
   6.330000     -5.9887088E-32
   6.340000     -5.9447523E-32
   6.350000     -5.8701232E-32
   6.360000     -5.7626900E-32
   6.370000     -5.6202818E-32
   6.380000     -5.4406851E-32
   6.390000     -5.2216464E-32
   6.400000     -4.9608800E-32
   6.410000     -4.6560752E-32
   6.420000     -4.3049033E-32
   6.430000     -3.9050298E-32
   6.440000     -3.4541190E-32
   6.450000     -2.9498490E-32
   6.460000     -2.3899277E-32
   6.470000     -1.7721125E-32
   6.480000     -1.0942269E-32
   6.490000     -3.5417950E-33
   6.500000      4.5001065E-33
   6.510000      1.3201901E-32
   6.520000      2.2580468E-32
   6.530000      3.2650857E-32
   6.540000      4.3426079E-32
   6.550000      5.4916722E-32
   6.560000      6.7130796E-32
   6.570000      8.0073588E-32
   6.580000      9.3747220E-32
   6.590000      1.0815075E-31
   6.600000      1.2327979E-31
   6.610000      1.3912612E-31
   6.620000      1.5567775E-31
   6.630000      1.7291870E-31
   6.640000      1.9082879E-31
   6.650000      2.0938345E-31
   6.660000      2.2855355E-31
   6.670000      2.4830510E-31
   6.680000      2.6859928E-31
   6.690000      2.8939202E-31
   6.700000      3.1063388E-31
   6.710000      3.3226991E-31
   6.720000      3.5423929E-31
   6.730000      3.7647527E-31
   6.740000      3.9890485E-31
   6.750000      4.2144858E-31
   6.760000      4.4402052E-31
   6.770000      4.6652771E-31
   6.780000      4.8887033E-31
   6.790000      5.1094131E-31
   6.800000      5.3262622E-31
   6.810000      5.5380318E-31
   6.820000      5.7434264E-31
   6.830000      5.9410731E-31
   6.840000      6.1295208E-31
   6.850000      6.3072400E-31
   6.860000      6.4726227E-31
   6.870000      6.6239826E-31
   6.880000      6.7595557E-31
   6.890000      6.8775029E-31
   6.900000      6.9759115E-31
   6.910000      7.0527964E-31
   6.920000      7.1061046E-31
   6.930000      7.1337197E-31
   6.940000      7.1334644E-31
   6.950000      7.1031080E-31
   6.960000      7.0403695E-31
   6.970000      6.9429257E-31
   6.980000      6.8084167E-31
   6.990000      6.6344544E-31
   7.000000      6.4186303E-31
   7.010000      6.1585226E-31
   7.020000      5.8517063E-31
   7.030000      5.4957638E-31
   7.040000      5.0882933E-31
   7.050000      4.6269202E-31
   7.060000      4.1093096E-31