  -2.600000      0.0000000E+00
  -2.590000      0.0000000E+00
  -2.580000      0.0000000E+00
  -2.570000      0.0000000E+00
  -2.560000      0.0000000E+00
  -2.550000      0.0000000E+00
  -2.540000      0.0000000E+00
  -2.530000      0.0000000E+00
  -2.520000      0.0000000E+00
  -2.510000      0.0000000E+00
  -2.500000      0.0000000E+00
  -2.490000      0.0000000E+00
  -2.480000      0.0000000E+00
  -2.470000      0.0000000E+00
  -2.460000      0.0000000E+00
  -2.450000      0.0000000E+00
  -2.440000      0.0000000E+00
  -2.430000      0.0000000E+00
  -2.420000      0.0000000E+00
  -2.410000      0.0000000E+00
  -2.400000      0.0000000E+00
  -2.390000      0.0000000E+00
  -2.380000      0.0000000E+00
  -2.370000      0.0000000E+00
  -2.360000      0.0000000E+00
  -2.350000      0.0000000E+00
  -2.340000      0.0000000E+00
  -2.330000      0.0000000E+00
  -2.320000      0.0000000E+00
  -2.310000      0.0000000E+00
  -2.300000      0.0000000E+00
  -2.290000      0.0000000E+00
  -2.280000      0.0000000E+00
  -2.270000      0.0000000E+00
  -2.260000      0.0000000E+00
  -2.250000      0.0000000E+00
  -2.240000      0.0000000E+00
  -2.230000      0.0000000E+00
  -2.220000      0.0000000E+00
  -2.210000      0.0000000E+00
  -2.200000      0.0000000E+00
  -2.190000      0.0000000E+00
  -2.180000      0.0000000E+00
  -2.170000      0.0000000E+00
  -2.160000      0.0000000E+00
  -2.150000      0.0000000E+00
  -2.140000      0.0000000E+00
  -2.130000      0.0000000E+00
  -2.120000      0.0000000E+00
  -2.110000      0.0000000E+00
  -2.100000      0.0000000E+00
  -2.090000      0.0000000E+00
  -2.080000      0.0000000E+00
  -2.070000      0.0000000E+00
  -2.060000      0.0000000E+00
  -2.050000      0.0000000E+00
  -2.040000      0.0000000E+00
  -2.030000      0.0000000E+00
  -2.020000      0.0000000E+00
  -2.010000      0.0000000E+00
  -2.000000      0.0000000E+00
  -1.990000      0.0000000E+00
  -1.980000      0.0000000E+00
  -1.970000      0.0000000E+00
  -1.960000      0.0000000E+00
  -1.950000      0.0000000E+00
  -1.940000      0.0000000E+00
  -1.930000      0.0000000E+00
  -1.920000      0.0000000E+00
  -1.910000      0.0000000E+00
  -1.900000      0.0000000E+00
  -1.890000      0.0000000E+00
  -1.880000      0.0000000E+00
  -1.870000      0.0000000E+00
  -1.860000      0.0000000E+00
  -1.850000      0.0000000E+00
  -1.840000      0.0000000E+00
  -1.830000      0.0000000E+00
  -1.820000      0.0000000E+00
  -1.810000      0.0000000E+00
  -1.800000      0.0000000E+00
  -1.790000      0.0000000E+00
  -1.780000      0.0000000E+00
  -1.770000      0.0000000E+00
  -1.760000      0.0000000E+00
  -1.750000      0.0000000E+00
  -1.740000      0.0000000E+00
  -1.730000      0.0000000E+00
  -1.720000      0.0000000E+00
  -1.710000      0.0000000E+00
  -1.700000      0.0000000E+00
  -1.690000      0.0000000E+00
  -1.680000      0.0000000E+00
  -1.670000      0.0000000E+00
  -1.660000      0.0000000E+00
  -1.650000      0.0000000E+00
  -1.640000      0.0000000E+00
  -1.630000      0.0000000E+00
  -1.620000      0.0000000E+00
  -1.610000      0.0000000E+00
  -1.600000      0.0000000E+00
  -1.590000      0.0000000E+00
  -1.580000      0.0000000E+00
  -1.570000      0.0000000E+00
  -1.560000      0.0000000E+00
  -1.550000      0.0000000E+00
  -1.540000      0.0000000E+00
  -1.530000      0.0000000E+00
  -1.520000      0.0000000E+00
  -1.510000      0.0000000E+00
  -1.500000      0.0000000E+00
  -1.490000      0.0000000E+00
  -1.480000      0.0000000E+00
  -1.470000      0.0000000E+00
  -1.460000      0.0000000E+00
  -1.450000      0.0000000E+00
  -1.440000      0.0000000E+00
  -1.430000      0.0000000E+00
  -1.420000      0.0000000E+00
  -1.410000      0.0000000E+00
  -1.400000      0.0000000E+00
  -1.390000      0.0000000E+00
  -1.380000      0.0000000E+00
  -1.370000      0.0000000E+00
  -1.360000      0.0000000E+00
  -1.350000      0.0000000E+00
  -1.340000      0.0000000E+00
  -1.330000      0.0000000E+00
  -1.320000      0.0000000E+00
  -1.310000      0.0000000E+00
  -1.300000      0.0000000E+00
  -1.290000      0.0000000E+00
  -1.280000      0.0000000E+00
  -1.270000      0.0000000E+00
  -1.260000      0.0000000E+00
  -1.250000      0.0000000E+00
  -1.240000      0.0000000E+00
  -1.230000      0.0000000E+00
  -1.220000      0.0000000E+00
  -1.210000      0.0000000E+00
  -1.200000      0.0000000E+00
  -1.190000      0.0000000E+00
  -1.180000      0.0000000E+00
  -1.170000      0.0000000E+00
  -1.160000      0.0000000E+00
  -1.150000      0.0000000E+00
  -1.140000      0.0000000E+00
  -1.130000      0.0000000E+00
  -1.120000      0.0000000E+00
  -1.110000      0.0000000E+00
  -1.100000      0.0000000E+00
  -1.090000      0.0000000E+00
  -1.080000      0.0000000E+00
  -1.070000      0.0000000E+00
  -1.060000      0.0000000E+00
  -1.050000      0.0000000E+00
  -1.040000      0.0000000E+00
  -1.030000      0.0000000E+00
  -1.020000      0.0000000E+00
  -1.010000      0.0000000E+00
  -1.000000      0.0000000E+00
 -0.9900000      0.0000000E+00
 -0.9800000      0.0000000E+00
 -0.9700000      0.0000000E+00
 -0.9600000      0.0000000E+00
 -0.9500000      0.0000000E+00
 -0.9400000      0.0000000E+00
 -0.9300000      0.0000000E+00
 -0.9200000      0.0000000E+00
 -0.9100000      0.0000000E+00
 -0.9000000      0.0000000E+00
 -0.8900000      0.0000000E+00
 -0.8800000      0.0000000E+00
 -0.8700000      0.0000000E+00
 -0.8600000      0.0000000E+00
 -0.8500000      0.0000000E+00
 -0.8400000      0.0000000E+00
 -0.8300000      0.0000000E+00
 -0.8200000      0.0000000E+00
 -0.8100000      0.0000000E+00
 -0.8000000      0.0000000E+00
 -0.7900000      0.0000000E+00
 -0.7800000      0.0000000E+00
 -0.7700000      0.0000000E+00
 -0.7600000      0.0000000E+00
 -0.7500000      0.0000000E+00
 -0.7400000      0.0000000E+00
 -0.7300000      0.0000000E+00
 -0.7200000      0.0000000E+00
 -0.7100000      0.0000000E+00
 -0.7000000      0.0000000E+00
 -0.6900000      0.0000000E+00
 -0.6800000      0.0000000E+00
 -0.6700000      0.0000000E+00
 -0.6600000      0.0000000E+00
 -0.6500000      0.0000000E+00
 -0.6400000      0.0000000E+00
 -0.6300000      0.0000000E+00
 -0.6200000      0.0000000E+00
 -0.6100000      0.0000000E+00
 -0.6000000      0.0000000E+00
 -0.5900000      0.0000000E+00
 -0.5800000      1.5752824E-38
 -0.5700000      2.1968345E-38
 -0.5600000      2.7310368E-38
 -0.5500000      3.2135678E-38
 -0.5400000      3.6617781E-38
 -0.5300000      3.9595353E-38
 -0.5200000      4.0523951E-38
 -0.5100000      3.9687925E-38
 -0.5000000      3.6420153E-38
 -0.4900000      2.9184156E-38
 -0.4800000      1.8335875E-38
 -0.4700000      0.0000000E+00
 -0.4600000     -1.4168310E-38
 -0.4500000     -3.6289247E-38
 -0.4400000     -5.8028801E-38
 -0.4300000     -7.7133280E-38
 -0.4200000     -9.6587849E-38
 -0.4100000     -1.2127243E-37
 -0.4000000     -1.5633877E-37
 -0.3900000     -1.9698898E-37
 -0.3800000     -2.3752426E-37
 -0.3700000     -2.7137983E-37
 -0.3600000     -3.0074816E-37
 -0.3500000     -3.3168257E-37
 -0.3400000     -3.0778761E-37
 -0.3300000     -1.4156167E-37
 -0.3200000      1.5496947E-37
 -0.3100000      4.9319253E-37
 -0.3000000      9.0689355E-37
 -0.2900000      1.4487268E-36
 -0.2800000      2.1720955E-36
 -0.2700000      3.1130188E-36
 -0.2600000      4.1340028E-36
 -0.2500000      5.0371605E-36
 -0.2400000      5.6478690E-36
 -0.2300000      5.8798663E-36
 -0.2200000      5.7757277E-36
 -0.2100000      5.3059834E-36
 -0.2000000      4.2740706E-36
 -0.1900000      2.6192131E-36
 -0.1800000      3.2211392E-37
 -0.1700000     -2.5410062E-36
 -0.1600000     -5.9935934E-36
 -0.1500000     -9.9935609E-36
 -0.1400000     -1.4298945E-35
 -0.1300000     -1.8750690E-35
 -0.1200000     -2.2979079E-35
 -0.1100000     -2.6744155E-35
 -0.1000000     -2.9928488E-35
 -9.0000004E-02 -3.2226531E-35
 -7.9999998E-02 -3.3774076E-35
 -7.0000000E-02 -3.4460007E-35
 -5.9999999E-02 -3.3730914E-35
 -5.0000001E-02 -3.1418502E-35
 -3.9999999E-02 -2.7523580E-35
 -2.9999999E-02 -2.2150575E-35
 -2.0000000E-02 -1.0317413E-35
 -9.9999998E-03  1.0914792E-35
 -3.4694470E-17  4.0830558E-35
  9.9999998E-03  7.8215655E-35
  2.0000000E-02  1.1980240E-34
  2.9999999E-02  1.6420727E-34
  3.9999999E-02  2.0980919E-34
  5.0000001E-02  2.5189962E-34
  5.9999999E-02  2.8964117E-34
  7.0000000E-02  3.2375282E-34
  7.9999998E-02  3.4722951E-34
  9.0000004E-02  3.5031444E-34
  0.1000000      3.2550215E-34
  0.1100000      2.6857993E-34
  0.1200000      1.8052547E-34
  0.1300000      5.9570507E-35
  0.1400000     -9.6461066E-35
  0.1500000     -2.8375924E-34
  0.1600000     -4.9822166E-34
  0.1700000     -7.3393579E-34
  0.1800000     -9.8329065E-34
  0.1900000     -1.2334035E-33
  0.2000000     -1.4761435E-33
  0.2100000     -1.6927122E-33
  0.2200000     -1.8614925E-33
  0.2300000     -1.9670691E-33
  0.2400000     -1.9846071E-33
  0.2500000     -1.8894727E-33
  0.2600000     -1.6552729E-33
  0.2700000     -1.2543147E-33
  0.2800000     -6.5792327E-34
  0.2900000      1.6282956E-34
  0.3000000      1.2371324E-33
  0.3100000      2.5940661E-33
  0.3200000      4.2619333E-33
  0.3300000      6.2681201E-33
  0.3400000      8.6387712E-33
  0.3500000      1.1398179E-32
  0.3600000      1.4568824E-32
  0.3700000      1.8171134E-32
  0.3800000      2.2222935E-32
  0.3900000      2.6739334E-32
  0.4000000      3.1732211E-32
  0.4100000      3.7209795E-32
  0.4200000      4.3176107E-32
  0.4300000      4.9630230E-32
  0.4400000      5.6565429E-32
  0.4500000      6.3968140E-32
  0.4600000      7.1816698E-32
  0.4700000      8.0079959E-32
  0.4800000      8.8715687E-32
  0.4900000      9.7668863E-32
  0.5000000      1.0686985E-31
  0.5100000      1.1623254E-31
  0.5200000      1.2565253E-31
  0.5300000      1.3500550E-31
  0.5400000      1.4414564E-31
  0.5500000      1.5290448E-31
  0.5600000      1.6109018E-31
  0.5700000      1.6848733E-31
  0.5800000      1.7485729E-31
  0.5900000      1.7993928E-31
  0.6000000      1.8345223E-31
  0.6100000      1.8509725E-31
  0.6200000      1.8456106E-31
  0.6300000      1.8151993E-31
  0.6400000      1.7564435E-31
  0.6500000      1.6660411E-31
  0.6600000      1.5407364E-31
  0.6700000      1.3773762E-31
  0.6800000      1.1729616E-31
  0.6900000      9.2469852E-32
  0.7000000      6.3003835E-32
  0.7100000      2.8671154E-32
  0.7200000     -1.0725271E-32
  0.7300000     -5.5352013E-32
  0.7400000     -1.0534618E-31
  0.7500000     -1.6081811E-31
  0.7600000     -2.2185582E-31
  0.7700000     -2.8853115E-31
  0.7800000     -3.6090742E-31
  0.7900000     -4.3904836E-31
  0.8000000     -5.2302822E-31
  0.8100000     -6.1294173E-31
  0.8200000     -7.0891530E-31
  0.8300000     -8.1111649E-31
  0.8400000     -9.1976377E-31
  0.8500000     -1.0351336E-30
  0.8600000     -1.1575667E-30
  0.8700000     -1.2874709E-30
  0.8800000     -1.4253224E-30
  0.8900000     -1.5716641E-30
  0.9000000     -1.7270997E-30
  0.9100000     -1.8922882E-30
  0.9200000     -2.0679334E-30
  0.9300000     -2.2547742E-30
  0.9400000     -2.4535721E-30
  0.9500000     -2.6651007E-30
  0.9600000     -2.8901355E-30
  0.9700000     -3.1294454E-30
  0.9800000     -3.3837886E-30
  0.9900000     -3.6539119E-30
   1.000000     -3.9405569E-30
   1.010000     -4.2444675E-30
   1.020000     -4.5664104E-30
   1.030000     -4.9071973E-30
   1.040000     -5.2677126E-30
   1.050000     -5.6489496E-30
   1.060000     -6.0520498E-30
   1.070000     -6.4783438E-30
   1.080000     -6.9293951E-30
   1.090000     -7.4070423E-30
   1.100000     -7.9134377E-30
   1.110000     -8.4510799E-30
   1.120000     -9.0228419E-30
   1.130000     -9.6319857E-30
   1.140000     -1.0282169E-29
   1.150000     -1.0977436E-29
   1.160000     -1.1722198E-29
   1.170000     -1.2521200E-29
   1.180000     -1.3379473E-29
   1.190000     -1.4302276E-29
   1.200000     -1.5295039E-29
   1.210000     -1.6363286E-29
   1.220000     -1.7512570E-29
   1.230000     -1.8748401E-29
   1.240000     -2.0076192E-29
   1.250000     -2.1501207E-29
   1.260000     -2.3028537E-29
   1.270000     -2.4663083E-29
   1.280000     -2.6409573E-29
   1.290000     -2.8272597E-29
   1.300000     -3.0256684E-29
   1.310000     -3.2366378E-29
   1.320000     -3.4606358E-29
   1.330000     -3.6981559E-29
   1.340000     -3.9497338E-29
   1.350000     -4.2159606E-29
   1.360000     -4.4974984E-29
   1.370000     -4.7950955E-29
   1.380000     -5.1095969E-29
   1.390000     -5.4419552E-29
   1.400000     -5.7932352E-29
   1.410000     -6.1646183E-29
   1.420000     -6.5573966E-29
   1.430000     -6.9729672E-29
   1.440000     -7.4128201E-29
   1.450000     -7.8785190E-29
   1.460000     -8.3716840E-29
   1.470000     -8.8939637E-29
   1.480000     -9.4470114E-29
   1.490000     -1.0032459E-28
   1.500000     -1.0651890E-28
   1.510000     -1.1306821E-28
   1.520000     -1.1998680E-28
   1.530000     -1.2728795E-28
   1.540000     -1.3498392E-28
   1.550000     -1.4308600E-28
   1.560000     -1.5160460E-28
   1.570000     -1.6054947E-28
   1.580000     -1.6993011E-28
   1.590000     -1.7975605E-28
   1.600000     -1.9003743E-28
   1.610000     -2.0078544E-28
   1.620000     -2.1201292E-28
   1.630000     -2.2373482E-28
   1.640000     -2.3596876E-28
   1.650000     -2.4873537E-28
   1.660000     -2.6205874E-28
   1.670000     -2.7596650E-28
   1.680000     -2.9048989E-28
   1.690000     -3.0566364E-28
   1.700000     -3.2152563E-28
   1.710000     -3.3811636E-28
   1.720000     -3.5547840E-28
   1.730000     -3.7365540E-28
   1.740000     -3.9269117E-28
   1.750000     -4.1262871E-28
   1.760000     -4.3350911E-28
   1.770000     -4.5537049E-28
   1.780000     -4.7824707E-28
   1.790000     -5.0216842E-28
   1.800000     -5.2715866E-28
   1.810000     -5.5323609E-28
   1.820000     -5.8041332E-28
   1.830000     -6.0869728E-28
   1.840000     -6.3808977E-28
   1.850000     -6.6858827E-28
   1.860000     -7.0018734E-28
   1.870000     -7.3287980E-28
   1.880000     -7.6665826E-28
   1.890000     -8.0151686E-28
   1.900000     -8.3745298E-28
   1.910000     -8.7446878E-28
   1.920000     -9.1257282E-28
   1.930000     -9.5178062E-28
   1.940000     -9.9211594E-28
   1.950000     -1.0336109E-27
   1.960000     -1.0763050E-27
   1.970000     -1.1202455E-27
   1.980000     -1.1654847E-27
   1.990000     -1.2120792E-27
   2.000000     -1.2600862E-27
   2.010000     -1.3095614E-27
   2.020000     -1.3605558E-27
   2.030000     -1.4131120E-27
   2.040000     -1.4672613E-27
   2.050000     -1.5230207E-27
   2.060000     -1.5803899E-27
   2.070000     -1.6393498E-27
   2.080000     -1.6998606E-27
   2.090000     -1.7618623E-27
   2.100000     -1.8252735E-27
   2.110000     -1.8899944E-27
   2.120000     -1.9559084E-27
   2.130000     -2.0228847E-27
   2.140000     -2.0907838E-27
   2.150000     -2.1594601E-27
   2.160000     -2.2287682E-27
   2.170000     -2.2985668E-27
   2.180000     -2.3687236E-27
   2.190000     -2.4391192E-27
   2.200000     -2.5096504E-27
   2.210000     -2.5802319E-27
   2.220000     -2.6507964E-27
   2.230000     -2.7212947E-27
   2.240000     -2.7916921E-27
   2.250000     -2.8619648E-27
   2.260000     -2.9320941E-27
   2.270000     -3.0020583E-27
   2.280000     -3.0718255E-27
   2.290000     -3.1413433E-27
   2.300000     -3.2105300E-27
   2.310000     -3.2792659E-27
   2.320000     -3.3473833E-27
   2.330000     -3.4146611E-27
   2.340000     -3.4808183E-27
   2.350000     -3.5455095E-27
   2.360000     -3.6083268E-27
   2.370000     -3.6687991E-27
   2.380000     -3.7263983E-27
   2.390000     -3.7805481E-27
   2.400000     -3.8306319E-27
   2.410000     -3.8760076E-27
   2.420000     -3.9160211E-27
   2.430000     -3.9500222E-27
   2.440000     -3.9773793E-27
   2.450000     -3.9974952E-27
   2.460000     -4.0098231E-27
   2.470000     -4.0138757E-27
   2.480000     -4.0092349E-27
   2.490000     -3.9955566E-27
   2.500000     -3.9725710E-27
   2.510000     -3.9400798E-27
   2.520000     -3.8979478E-27
   2.530000     -3.8460890E-27
   2.540000     -3.7844527E-27
   2.550000     -3.7130011E-27
   2.560000     -3.6316899E-27
   2.570000     -3.5404447E-27
   2.580000     -3.4391389E-27
   2.590000     -3.3275748E-27
   2.600000     -3.2054637E-27
   2.610000     -3.0724170E-27
   2.620000     -2.9279366E-27
   2.630000     -2.7714163E-27
   2.640000     -2.6021494E-27
   2.650000     -2.4193440E-27
   2.660000     -2.2221463E-27
   2.670000     -2.0096703E-27
   2.680000     -1.7810343E-27
   2.690000     -1.5354016E-27
   2.700000     -1.2720248E-27
   2.710000     -9.9029036E-28
   2.720000     -6.8976175E-28
   2.730000     -3.7022074E-28
   2.740000     -3.1700067E-29
   2.750000      3.2549056E-28
   2.760000      7.0074894E-28
   2.770000      1.0931750E-27
   2.780000      1.5015783E-27
   2.790000      1.9244988E-27
   2.800000      2.3602368E-27
   2.810000      2.8068969E-27
   2.820000      3.2624394E-27
   2.830000      3.7247397E-27
   2.840000      4.1916467E-27
   2.850000      4.6610474E-27
   2.860000      5.1309254E-27
   2.870000      5.5994121E-27
   2.880000      6.0648281E-27
   2.890000      6.5257132E-27
   2.900000      6.9808358E-27
   2.910000      7.4291916E-27
   2.920000      7.8699745E-27
   2.930000      8.3025376E-27
   2.940000      8.7263385E-27
   2.950000      9.1408587E-27
   2.960000      9.5455251E-27
   2.970000      9.9396158E-27
   2.980000      1.0322169E-26
   2.990000      1.0691894E-26
   3.000000      1.1047090E-26
   3.010000      1.1385586E-26
   3.020000      1.1704692E-26
   3.030000      1.2001183E-26
   3.040000      1.2271306E-26
   3.050000      1.2510826E-26
   3.060000      1.2715089E-26
   3.070000      1.2879130E-26
   3.080000      1.2997796E-26
   3.090000      1.3065905E-26
   3.100000      1.3078405E-26
   3.110000      1.3030562E-26
   3.120000      1.2918132E-26
   3.130000      1.2737543E-26
   3.140000      1.2486046E-26
   3.150000      1.2161850E-26
   3.160000      1.1764225E-26
   3.170000      1.1293563E-26
   3.180000      1.0751402E-26
   3.190000      1.0140399E-26
   3.200000      9.4642593E-27
   3.210000      8.7276273E-27
   3.220000      7.9359384E-27
   3.230000      7.0952361E-27
   3.240000      6.2119800E-27
   3.250000      5.2928314E-27
   3.260000      4.3444581E-27
   3.270000      3.3733503E-27
   3.280000      2.3856614E-27
   3.290000      1.3871017E-27
   3.300000      3.8287851E-28
   3.310000     -6.2229738E-28
   3.320000     -1.6241446E-27
   3.330000     -2.6186729E-27
   3.340000     -3.6019786E-27
   3.350000     -4.5699822E-27
   3.360000     -5.5181209E-27
   3.370000     -6.4409977E-27
   3.380000     -7.3320184E-27
   3.390000     -8.1830229E-27
   3.400000     -8.9839447E-27
   3.410000     -9.7225019E-27
   3.420000     -1.0383956E-26
   3.430000     -1.0950949E-26
   3.440000     -1.1403430E-26
   3.450000     -1.1718700E-26
   3.460000     -1.1871544E-26
   3.470000     -1.1834497E-26
   3.480000     -1.1578209E-26
   3.490000     -1.1071909E-26
   3.500000     -1.0283936E-26
   3.510000     -9.1823494E-27
   3.520000     -7.7355554E-27
   3.530000     -5.9129393E-27
   3.540000     -3.6854803E-27
   3.550000     -1.0263090E-27
   3.560000      2.0888239E-27
   3.570000      5.6811806E-27
   3.580000      9.7687935E-27
   3.590000      1.4366363E-26
   3.600000      1.9485293E-26
   3.610000      2.5133868E-26
   3.620000      3.1317568E-26
   3.630000      3.8039461E-26
   3.640000      4.5300710E-26
   3.650000      5.3101087E-26
   3.660000      6.1439532E-26
   3.670000      7.0314599E-26
   3.680000      7.9724909E-26
   3.690000      8.9669412E-26
   3.700000      1.0014747E-25
   3.710000      1.1115880E-25
   3.720000      1.2270315E-25
   3.730000      1.3477971E-25
   3.740000      1.4738636E-25
   3.750000      1.6051864E-25
   3.760000      1.7416847E-25
   3.770000      1.8832280E-25
   3.780000      2.0296208E-25
   3.790000      2.1805858E-25
   3.800000      2.3357496E-25
   3.810000      2.4946252E-25
   3.820000      2.6565993E-25
   3.830000      2.8209200E-25
   3.840000      2.9866856E-25
   3.850000      3.1528396E-25
   3.860000      3.3181657E-25
   3.870000      3.4812878E-25
   3.880000      3.6406729E-25
   3.890000      3.7946381E-25
   3.900000      3.9413586E-25
   3.910000      4.0788800E-25
   3.920000      4.2051305E-25
   3.930000      4.3179362E-25
   3.940000      4.4150316E-25
   3.950000      4.4940765E-25
   3.960000      4.5526647E-25
   3.970000      4.5883335E-25
   3.980000      4.5985670E-25
   3.990000      4.5808014E-25
   4.000000      4.5324191E-25
   4.010000      4.4507444E-25
   4.020000      4.3330310E-25
   4.030000      4.1764530E-25
   4.040000      3.9780831E-25
   4.050000      3.7348802E-25
   4.060000      3.4436678E-25
   4.070000      3.1011185E-25
   4.080000      2.7037392E-25
   4.090000      2.2478589E-25
   4.100000      1.7296243E-25
   4.110000      1.1449988E-25
   4.120000      4.8977197E-26
   4.130000     -2.4042668E-26
   4.140000     -1.0501029E-25
   4.150000     -1.9438640E-25
   4.160000     -2.9263786E-25
   4.170000     -4.0023282E-25
   4.180000     -5.1763509E-25
   4.190000     -6.4529823E-25
   4.200000     -7.8365896E-25
   4.210000     -9.3313045E-25
   4.220000     -1.0940958E-24
   4.230000     -1.2669015E-24
   4.240000     -1.4518516E-24
   4.250000     -1.6492009E-24
   4.260000     -1.8591515E-24
   4.270000     -2.0818469E-24
   4.280000     -2.3173692E-24
   4.290000     -2.5657350E-24
   4.300000     -2.8268945E-24
   4.310000     -3.1007278E-24
   4.320000     -3.3870441E-24
   4.330000     -3.6855806E-24
   4.340000     -3.9959998E-24
   4.350000     -4.3178874E-24
   4.360000     -4.6507508E-24
   4.370000     -4.9940149E-24
   4.380000     -5.3470164E-24
   4.390000     -5.7090002E-24
   4.400000     -6.0791108E-24
   4.410000     -6.4563836E-24
   4.420000     -6.8397356E-24
   4.430000     -7.2279530E-24
   4.440000     -7.6196777E-24
   4.450000     -8.0133974E-24
   4.460000     -8.4074271E-24
   4.470000     -8.7998988E-24
   4.480000     -9.1887418E-24
   4.490000     -9.5716730E-24
   4.500000     -9.9461823E-24
   4.510000     -1.0309522E-23
   4.520000     -1.0658694E-23
   4.530000     -1.0990444E-23
   4.540000     -1.1301254E-23
   4.550000     -1.1587340E-23
   4.560000     -1.1844651E-23
   4.570000     -1.2068868E-23
   4.580000     -1.2255409E-23
   4.590000     -1.2399436E-23
   4.600000     -1.2495858E-23
   4.610000     -1.2539344E-23
   4.620000     -1.2524329E-23
   4.630000     -1.2445025E-23
   4.640000     -1.2295433E-23
   4.650000     -1.2069352E-23
   4.660000     -1.1760386E-23
   4.670000     -1.1361959E-23
   4.680000     -1.0867317E-23
   4.690000     -1.0269538E-23
   4.700000     -9.5615424E-24
   4.710000     -8.7360934E-24
   4.720000     -7.7858094E-24
   4.730000     -6.7031673E-24
   4.740000     -5.4805181E-24
   4.750000     -4.1100911E-24
   4.760000     -2.5840137E-24
   4.770000     -8.9432579E-25
   4.780000      9.6699566E-25
   4.790000      3.0080073E-24
   4.800000      5.2367660E-24
   4.810000      7.6612917E-24
   4.820000      1.0289522E-23
   4.830000      1.3129254E-23
   4.840000      1.6188087E-23
   4.850000      1.9473353E-23
   4.860000      2.2992055E-23
   4.870000      2.6750781E-23
   4.880000      3.0755626E-23
   4.890000      3.5012102E-23
   4.900000      3.9525049E-23
   4.910000      4.4298554E-23
   4.920000      4.9335856E-23
   4.930000      5.4639264E-23
   4.940000      6.0210036E-23
   4.950000      6.6048326E-23
   4.960000      7.2153081E-23
   4.970000      7.8521959E-23
   4.980000      8.5151224E-23
   4.990000      9.2035682E-23
   5.000000      9.9168601E-23
   5.010000      1.0654161E-22
   5.020000      1.1414460E-22
   5.030000      1.2196567E-22
   5.040000      1.2999105E-22
   5.050000      1.3820492E-22
   5.060000      1.4658942E-22
   5.070000      1.5512444E-22
   5.080000      1.6378758E-22
   5.090000      1.7255405E-22
   5.100000      1.8139646E-22
   5.110000      1.9028474E-22
   5.120000      1.9918603E-22
   5.130000      2.0806458E-22
   5.140000      2.1688147E-22
   5.150000      2.2559463E-22
   5.160000      2.3415866E-22
   5.170000      2.4252470E-22
   5.180000      2.5064032E-22
   5.190000      2.5844941E-22
   5.200000      2.6589212E-22
   5.210000      2.7290473E-22
   5.220000      2.7941968E-22
   5.230000      2.8536545E-22
   5.240000      2.9066659E-22
   5.250000      2.9524373E-22
   5.260000      2.9901352E-22
   5.270000      3.0188881E-22
   5.280000      3.0377862E-22
   5.290000      3.0458826E-22
   5.300000      3.0421935E-22
   5.310000      3.0257011E-22
   5.320000      2.9953533E-22
   5.330000      2.9500661E-22
   5.340000      2.8887253E-22
   5.350000      2.8101886E-22
   5.360000      2.7132870E-22
   5.370000      2.5968274E-22
   5.380000      2.4595943E-22
   5.390000      2.3003537E-22
   5.400000      2.1178545E-22
   5.410000      1.9108329E-22
   5.420000      1.6780144E-22
   5.430000      1.4181183E-22
   5.440000      1.1298616E-22
   5.450000      8.1196260E-23
   5.460000      4.6314699E-23
   5.470000      8.2152716E-24
   5.480000     -3.3226443E-23
   5.490000     -7.8132444E-23
   5.500000     -1.2662159E-22
   5.510000     -1.7880893E-22
   5.520000     -2.3480479E-22
   5.530000     -2.9471399E-22
   5.540000     -3.5863492E-22
   5.550000     -4.2665869E-22
   5.560000     -4.9886796E-22
   5.570000     -5.7533597E-22
   5.580000     -6.5612548E-22
   5.590000     -7.4128757E-22
   5.600000     -8.3086067E-22
   5.610000     -9.2486911E-22
   5.620000     -1.0233223E-21
   5.630000     -1.1262129E-21
   5.640000     -1.2335161E-21
   5.650000     -1.3451885E-21
   5.660000     -1.4611663E-21
   5.670000     -1.5813642E-21
   5.680000     -1.7056745E-21
   5.690000     -1.8339658E-21
   5.700000     -1.9660809E-21
   5.710000     -2.1018363E-21
   5.720000     -2.2410205E-21
   5.730000     -2.3833927E-21
   5.740000     -2.5286820E-21
   5.750000     -2.6765856E-21
   5.760000     -2.8267666E-21
   5.770000     -2.9788545E-21
   5.780000     -3.1324419E-21
   5.790000     -3.2870851E-21
   5.800000     -3.4423012E-21
   5.810000     -3.5975668E-21
   5.820000     -3.7523187E-21
   5.830000     -3.9059497E-21
   5.840000     -4.0578100E-21
   5.850000     -4.2072050E-21
   5.860000     -4.3533942E-21
   5.870000     -4.4955909E-21
   5.880000     -4.6329607E-21
   5.890000     -4.7646213E-21
   5.900000     -4.8896427E-21
   5.910000     -5.0070462E-21
   5.920000     -5.1158043E-21
   5.930000     -5.2148414E-21
   5.940000     -5.3030327E-21
   5.950000     -5.3792064E-21
   5.960000     -5.4421436E-21
   5.970000     -5.4905789E-21
   5.980000     -5.5232029E-21
   5.990000     -5.5386616E-21
   6.000000     -5.5355605E-21
   6.010000     -5.5124657E-21
   6.020000     -5.4679034E-21
   6.030000     -5.4003670E-21
   6.040000     -5.3083157E-21
   6.050000     -5.1901803E-21
   6.060000     -5.0443651E-21
   6.070000     -4.8692508E-21
   6.080000     -4.6632008E-21
   6.090000     -4.4245628E-21
   6.100000     -4.1516756E-21
   6.110000     -3.8428719E-21
   6.120000     -3.4964840E-21
   6.130000     -3.1108514E-21
   6.140000     -2.6843245E-21
   6.150000     -2.2152735E-21
   6.160000     -1.7020933E-21
   6.170000     -1.1432127E-21
   6.180000     -5.3710033E-22
   6.190000      1.1772505E-22
   6.200000      8.2268660E-22
   6.210000      1.5791399E-21
   6.220000      2.3883643E-21
   6.230000      3.2515494E-21
   6.240000      4.1697876E-21
   6.250000      5.1440605E-21
   6.260000      6.1752312E-21
   6.270000      7.2640279E-21
   6.280000      8.4110334E-21
   6.290000      9.6166717E-21
   6.300000      1.0881199E-20
   6.310000      1.2204684E-20
   6.320000      1.3587002E-20
   6.330000      1.5027812E-20
   6.340000      1.6526553E-20
   6.350000      1.8082420E-20
   6.360000      1.9694359E-20
   6.370000      2.1361048E-20
   6.380000      2.3080877E-20
   6.390000      2.4851950E-20
   6.400000      2.6672053E-20
   6.410000      2.8538652E-20
   6.420000      3.0448867E-20
   6.430000      3.2399472E-20
   6.440000      3.4386864E-20
   6.450000      3.6407065E-20
   6.460000      3.8455707E-20
   6.470000      4.0528002E-20
   6.480000      4.2618746E-20
   6.490000      4.4722308E-20
   6.500000      4.6832595E-20
   6.510000      4.8943075E-20
   6.520000      5.1046741E-20
   6.530000      5.3136108E-20
   6.540000      5.5203210E-20
   6.550000      5.7239574E-20
   6.560000      5.9236252E-20
   6.570000      6.1183765E-20
   6.580000      6.3072153E-20
   6.590000      6.4890923E-20
   6.600000      6.6629075E-20
   6.610000      6.8275113E-20
   6.620000      6.9817036E-20
   6.630000      7.1242320E-20
   6.640000      7.2537962E-20
   6.650000      7.3690490E-20
   6.660000      7.4685918E-20
   6.670000      7.5509835E-20
   6.680000      7.6147378E-20
   6.690000      7.6583270E-20
   6.700000      7.6801820E-20
   6.710000      7.6786976E-20
   6.720000      7.6522310E-20
   6.730000      7.5991099E-20
   6.740000      7.5176320E-20
   6.750000      7.4060711E-20
   6.760000      7.2626787E-20
   6.770000      7.0856905E-20
   6.780000      6.8733293E-20
   6.790000      6.6238110E-20
   6.800000      6.3353485E-20
   6.810000      6.0061610E-20
   6.820000      5.6344745E-20
   6.830000      5.2185319E-20
   6.840000      4.7565987E-20
   6.850000      4.2469705E-20
   6.860000      3.6879799E-20
   6.870000      3.0780063E-20
   6.880000      2.4154813E-20
   6.890000      1.6989004E-20
   6.900000      9.2682978E-21
   6.910000      9.7916707E-22
   6.920000     -7.8910098E-21
   6.930000     -1.7353842E-20
   6.940000     -2.7419819E-20
   6.950000     -3.8098207E-20
   6.960000     -4.9396932E-20
   6.970000     -6.1322472E-20
   6.980000     -7.3879759E-20
   6.990000     -8.7072004E-20
   7.000000     -1.0090064E-19
   7.010000     -1.1536516E-19
   7.020000     -1.3046298E-19
   7.030000     -1.4618935E-19
   7.040000     -1.6253720E-19
   7.050000     -1.7949702E-19
   7.060000     -1.9705672E-19