  -2.600000      0.0000000E+00
  -2.590000      0.0000000E+00
  -2.580000      0.0000000E+00
  -2.570000      0.0000000E+00
  -2.560000      0.0000000E+00
  -2.550000      0.0000000E+00
  -2.540000      0.0000000E+00
  -2.530000      0.0000000E+00
  -2.520000      0.0000000E+00
  -2.510000      0.0000000E+00
  -2.500000      0.0000000E+00
  -2.490000      0.0000000E+00
  -2.480000      0.0000000E+00
  -2.470000      0.0000000E+00
  -2.460000      0.0000000E+00
  -2.450000      0.0000000E+00
  -2.440000      0.0000000E+00
  -2.430000      0.0000000E+00
  -2.420000      0.0000000E+00
  -2.410000      0.0000000E+00
  -2.400000      0.0000000E+00
  -2.390000      0.0000000E+00
  -2.380000      0.0000000E+00
  -2.370000      0.0000000E+00
  -2.360000      0.0000000E+00
  -2.350000      0.0000000E+00
  -2.340000      0.0000000E+00
  -2.330000      0.0000000E+00
  -2.320000      0.0000000E+00
  -2.310000      0.0000000E+00
  -2.300000      0.0000000E+00
  -2.290000      0.0000000E+00
  -2.280000      0.0000000E+00
  -2.270000      0.0000000E+00
  -2.260000      0.0000000E+00
  -2.250000      0.0000000E+00
  -2.240000      0.0000000E+00
  -2.230000      0.0000000E+00
  -2.220000      0.0000000E+00
  -2.210000      0.0000000E+00
  -2.200000      0.0000000E+00
  -2.190000      0.0000000E+00
  -2.180000      0.0000000E+00
  -2.170000      0.0000000E+00
  -2.160000      0.0000000E+00
  -2.150000      0.0000000E+00
  -2.140000      0.0000000E+00
  -2.130000      0.0000000E+00
  -2.120000      0.0000000E+00
  -2.110000      0.0000000E+00
  -2.100000      0.0000000E+00
  -2.090000      0.0000000E+00
  -2.080000      0.0000000E+00
  -2.070000      0.0000000E+00
  -2.060000      0.0000000E+00
  -2.050000      0.0000000E+00
  -2.040000      0.0000000E+00
  -2.030000      0.0000000E+00
  -2.020000      0.0000000E+00
  -2.010000      0.0000000E+00
  -2.000000      0.0000000E+00
  -1.990000      0.0000000E+00
  -1.980000      0.0000000E+00
  -1.970000      0.0000000E+00
  -1.960000      0.0000000E+00
  -1.950000      0.0000000E+00
  -1.940000      0.0000000E+00
  -1.930000      0.0000000E+00
  -1.920000      0.0000000E+00
  -1.910000      0.0000000E+00
  -1.900000      0.0000000E+00
  -1.890000      0.0000000E+00
  -1.880000      0.0000000E+00
  -1.870000      0.0000000E+00
  -1.860000      0.0000000E+00
  -1.850000      0.0000000E+00
  -1.840000      0.0000000E+00
  -1.830000      0.0000000E+00
  -1.820000      0.0000000E+00
  -1.810000      0.0000000E+00
  -1.800000      0.0000000E+00
  -1.790000      0.0000000E+00
  -1.780000      0.0000000E+00
  -1.770000      0.0000000E+00
  -1.760000      0.0000000E+00
  -1.750000      0.0000000E+00
  -1.740000      0.0000000E+00
  -1.730000      0.0000000E+00
  -1.720000      0.0000000E+00
  -1.710000      0.0000000E+00
  -1.700000      0.0000000E+00
  -1.690000      0.0000000E+00
  -1.680000      0.0000000E+00
  -1.670000      0.0000000E+00
  -1.660000      0.0000000E+00
  -1.650000      0.0000000E+00
  -1.640000      0.0000000E+00
  -1.630000      0.0000000E+00
  -1.620000      0.0000000E+00
  -1.610000      0.0000000E+00
  -1.600000      0.0000000E+00
  -1.590000      0.0000000E+00
  -1.580000      0.0000000E+00
  -1.570000      0.0000000E+00
  -1.560000      0.0000000E+00
  -1.550000      0.0000000E+00
  -1.540000      0.0000000E+00
  -1.530000      0.0000000E+00
  -1.520000      0.0000000E+00
  -1.510000      0.0000000E+00
  -1.500000      0.0000000E+00
  -1.490000      0.0000000E+00
  -1.480000      0.0000000E+00
  -1.470000      0.0000000E+00
  -1.460000      0.0000000E+00
  -1.450000      0.0000000E+00
  -1.440000      0.0000000E+00
  -1.430000      0.0000000E+00
  -1.420000      0.0000000E+00
  -1.410000      0.0000000E+00
  -1.400000      0.0000000E+00
  -1.390000      0.0000000E+00
  -1.380000      0.0000000E+00
  -1.370000      0.0000000E+00
  -1.360000      0.0000000E+00
  -1.350000      0.0000000E+00
  -1.340000      0.0000000E+00
  -1.330000      0.0000000E+00
  -1.320000      0.0000000E+00
  -1.310000      0.0000000E+00
  -1.300000      0.0000000E+00
  -1.290000      0.0000000E+00
  -1.280000      0.0000000E+00
  -1.270000      0.0000000E+00
  -1.260000      0.0000000E+00
  -1.250000      0.0000000E+00
  -1.240000      0.0000000E+00
  -1.230000      0.0000000E+00
  -1.220000      0.0000000E+00
  -1.210000      0.0000000E+00
  -1.200000      0.0000000E+00
  -1.190000      0.0000000E+00
  -1.180000      0.0000000E+00
  -1.170000      0.0000000E+00
  -1.160000      0.0000000E+00
  -1.150000      0.0000000E+00
  -1.140000      0.0000000E+00
  -1.130000      0.0000000E+00
  -1.120000      0.0000000E+00
  -1.110000      0.0000000E+00
  -1.100000      0.0000000E+00
  -1.090000      0.0000000E+00
  -1.080000      0.0000000E+00
  -1.070000      0.0000000E+00
  -1.060000      0.0000000E+00
  -1.050000      0.0000000E+00
  -1.040000      0.0000000E+00
  -1.030000      0.0000000E+00
  -1.020000      0.0000000E+00
  -1.010000      0.0000000E+00
  -1.000000      0.0000000E+00
 -0.9900000      0.0000000E+00
 -0.9800000      0.0000000E+00
 -0.9700000      0.0000000E+00
 -0.9600000      0.0000000E+00
 -0.9500000      0.0000000E+00
 -0.9400000      0.0000000E+00
 -0.9300000      0.0000000E+00
 -0.9200000      0.0000000E+00
 -0.9100000      0.0000000E+00
 -0.9000000      0.0000000E+00
 -0.8900000      0.0000000E+00
 -0.8800000      0.0000000E+00
 -0.8700000      0.0000000E+00
 -0.8600000      0.0000000E+00
 -0.8500000      0.0000000E+00
 -0.8400000      0.0000000E+00
 -0.8300000      0.0000000E+00
 -0.8200000      0.0000000E+00
 -0.8100000      0.0000000E+00
 -0.8000000      0.0000000E+00
 -0.7900000      0.0000000E+00
 -0.7800000      0.0000000E+00
 -0.7700000      0.0000000E+00
 -0.7600000      0.0000000E+00
 -0.7500000      0.0000000E+00
 -0.7400000      0.0000000E+00
 -0.7300000      0.0000000E+00
 -0.7200000      0.0000000E+00
 -0.7100000      0.0000000E+00
 -0.7000000      0.0000000E+00
 -0.6900000      0.0000000E+00
 -0.6800000      0.0000000E+00
 -0.6700000      0.0000000E+00
 -0.6600000      0.0000000E+00
 -0.6500000      0.0000000E+00
 -0.6400000      0.0000000E+00
 -0.6300000      0.0000000E+00
 -0.6200000      0.0000000E+00
 -0.6100000      0.0000000E+00
 -0.6000000      0.0000000E+00
 -0.5900000      0.0000000E+00
 -0.5800000      0.0000000E+00
 -0.5700000      0.0000000E+00
 -0.5600000      0.0000000E+00
 -0.5500000      0.0000000E+00
 -0.5400000      0.0000000E+00
 -0.5300000      0.0000000E+00
 -0.5200000      0.0000000E+00
 -0.5100000      0.0000000E+00
 -0.5000000      0.0000000E+00
 -0.4900000      0.0000000E+00
 -0.4800000      0.0000000E+00
 -0.4700000      0.0000000E+00
 -0.4600000      0.0000000E+00
 -0.4500000      0.0000000E+00
 -0.4400000      0.0000000E+00
 -0.4300000      0.0000000E+00
 -0.4200000      0.0000000E+00
 -0.4100000      0.0000000E+00
 -0.4000000      0.0000000E+00
 -0.3900000      0.0000000E+00
 -0.3800000      0.0000000E+00
 -0.3700000      0.0000000E+00
 -0.3600000      0.0000000E+00
 -0.3500000      0.0000000E+00
 -0.3400000      0.0000000E+00
 -0.3300000      0.0000000E+00
 -0.3200000      0.0000000E+00
 -0.3100000      0.0000000E+00
 -0.3000000      0.0000000E+00
 -0.2900000      0.0000000E+00
 -0.2800000      0.0000000E+00
 -0.2700000      0.0000000E+00
 -0.2600000      0.0000000E+00
 -0.2500000      0.0000000E+00
 -0.2400000      0.0000000E+00
 -0.2300000      0.0000000E+00
 -0.2200000      0.0000000E+00
 -0.2100000      0.0000000E+00
 -0.2000000      0.0000000E+00
 -0.1900000      0.0000000E+00
 -0.1800000      0.0000000E+00
 -0.1700000      0.0000000E+00
 -0.1600000      0.0000000E+00
 -0.1500000      0.0000000E+00
 -0.1400000      0.0000000E+00
 -0.1300000      0.0000000E+00
 -0.1200000      0.0000000E+00
 -0.1100000      0.0000000E+00
 -0.1000000      0.0000000E+00
 -9.0000004E-02  0.0000000E+00
 -7.9999998E-02  0.0000000E+00
 -7.0000000E-02  0.0000000E+00
 -5.9999999E-02  0.0000000E+00
 -5.0000001E-02  0.0000000E+00
 -3.9999999E-02  0.0000000E+00
 -2.9999999E-02  0.0000000E+00
 -2.0000000E-02  0.0000000E+00
 -9.9999998E-03  0.0000000E+00
 -3.4694470E-17  0.0000000E+00
  9.9999998E-03  0.0000000E+00
  2.0000000E-02  0.0000000E+00
  2.9999999E-02  0.0000000E+00
  3.9999999E-02  0.0000000E+00
  5.0000001E-02  0.0000000E+00
  5.9999999E-02  0.0000000E+00
  7.0000000E-02  0.0000000E+00
  7.9999998E-02  0.0000000E+00
  9.0000004E-02  0.0000000E+00
  0.1000000      0.0000000E+00
  0.1100000      0.0000000E+00
  0.1200000      0.0000000E+00
  0.1300000      0.0000000E+00
  0.1400000      0.0000000E+00
  0.1500000      0.0000000E+00
  0.1600000      0.0000000E+00
  0.1700000      0.0000000E+00
  0.1800000      0.0000000E+00
  0.1900000      0.0000000E+00
  0.2000000      0.0000000E+00
  0.2100000      0.0000000E+00
  0.2200000      0.0000000E+00
  0.2300000      0.0000000E+00
  0.2400000      0.0000000E+00
  0.2500000      0.0000000E+00
  0.2600000      0.0000000E+00
  0.2700000      0.0000000E+00
  0.2800000      0.0000000E+00
  0.2900000      0.0000000E+00
  0.3000000      0.0000000E+00
  0.3100000      0.0000000E+00
  0.3200000      0.0000000E+00
  0.3300000      0.0000000E+00
  0.3400000      0.0000000E+00
  0.3500000      0.0000000E+00
  0.3600000      0.0000000E+00
  0.3700000      0.0000000E+00
  0.3800000      0.0000000E+00
  0.3900000      0.0000000E+00
  0.4000000      0.0000000E+00
  0.4100000      0.0000000E+00
  0.4200000      0.0000000E+00
  0.4300000      0.0000000E+00
  0.4400000      0.0000000E+00
  0.4500000      0.0000000E+00
  0.4600000      0.0000000E+00
  0.4700000      0.0000000E+00
  0.4800000      0.0000000E+00
  0.4900000      0.0000000E+00
  0.5000000      0.0000000E+00
  0.5100000      0.0000000E+00
  0.5200000      0.0000000E+00
  0.5300000      0.0000000E+00
  0.5400000      0.0000000E+00
  0.5500000      0.0000000E+00
  0.5600000      0.0000000E+00
  0.5700000      0.0000000E+00
  0.5800000      0.0000000E+00
  0.5900000      0.0000000E+00
  0.6000000      0.0000000E+00
  0.6100000      0.0000000E+00
  0.6200000      0.0000000E+00
  0.6300000      0.0000000E+00
  0.6400000      0.0000000E+00
  0.6500000      0.0000000E+00
  0.6600000      0.0000000E+00
  0.6700000      0.0000000E+00
  0.6800000      0.0000000E+00
  0.6900000      0.0000000E+00
  0.7000000      0.0000000E+00
  0.7100000      0.0000000E+00
  0.7200000      0.0000000E+00
  0.7300000      0.0000000E+00
  0.7400000      0.0000000E+00
  0.7500000      0.0000000E+00
  0.7600000      0.0000000E+00
  0.7700000      0.0000000E+00
  0.7800000      0.0000000E+00
  0.7900000      0.0000000E+00
  0.8000000      0.0000000E+00
  0.8100000      0.0000000E+00
  0.8200000      0.0000000E+00
  0.8300000      0.0000000E+00
  0.8400000      0.0000000E+00
  0.8500000      0.0000000E+00
  0.8600000      0.0000000E+00
  0.8700000      0.0000000E+00
  0.8800000      0.0000000E+00
  0.8900000      0.0000000E+00
  0.9000000      0.0000000E+00
  0.9100000      0.0000000E+00
  0.9200000      0.0000000E+00
  0.9300000      0.0000000E+00
  0.9400000      0.0000000E+00
  0.9500000      0.0000000E+00
  0.9600000      0.0000000E+00
  0.9700000      0.0000000E+00
  0.9800000      0.0000000E+00
  0.9900000      0.0000000E+00
   1.000000      0.0000000E+00
   1.010000      0.0000000E+00
   1.020000      0.0000000E+00
   1.030000      0.0000000E+00
   1.040000      0.0000000E+00
   1.050000      0.0000000E+00
   1.060000      0.0000000E+00
   1.070000      0.0000000E+00
   1.080000      0.0000000E+00
   1.090000      0.0000000E+00
   1.100000      0.0000000E+00
   1.110000      0.0000000E+00
   1.120000      0.0000000E+00
   1.130000      0.0000000E+00
   1.140000      0.0000000E+00
   1.150000      0.0000000E+00
   1.160000      0.0000000E+00
   1.170000      0.0000000E+00
   1.180000      0.0000000E+00
   1.190000      0.0000000E+00
   1.200000      0.0000000E+00
   1.210000      0.0000000E+00
   1.220000      0.0000000E+00
   1.230000      0.0000000E+00
   1.240000      0.0000000E+00
   1.250000      0.0000000E+00
   1.260000      0.0000000E+00
   1.270000      0.0000000E+00
   1.280000      0.0000000E+00
   1.290000      0.0000000E+00
   1.300000      0.0000000E+00
   1.310000      0.0000000E+00
   1.320000      0.0000000E+00
   1.330000      0.0000000E+00
   1.340000      0.0000000E+00
   1.350000      0.0000000E+00
   1.360000      0.0000000E+00
   1.370000      0.0000000E+00
   1.380000      0.0000000E+00
   1.390000      0.0000000E+00
   1.400000      0.0000000E+00
   1.410000      0.0000000E+00
   1.420000      0.0000000E+00
   1.430000      0.0000000E+00
   1.440000      0.0000000E+00
   1.450000      0.0000000E+00
   1.460000      0.0000000E+00
   1.470000      0.0000000E+00
   1.480000      0.0000000E+00
   1.490000      0.0000000E+00
   1.500000      0.0000000E+00
   1.510000      0.0000000E+00
   1.520000      0.0000000E+00
   1.530000      0.0000000E+00
   1.540000      0.0000000E+00
   1.550000      0.0000000E+00
   1.560000      0.0000000E+00
   1.570000      0.0000000E+00
   1.580000      0.0000000E+00
   1.590000     -1.2242714E-38
   1.600000     -1.2254150E-38
   1.610000     -1.1932639E-38
   1.620000      0.0000000E+00
   1.630000      0.0000000E+00
   1.640000      0.0000000E+00
   1.650000     -1.2113192E-38
   1.660000     -1.2426104E-38
   1.670000     -1.2232416E-38
   1.680000      0.0000000E+00
   1.690000      0.0000000E+00
   1.700000      0.0000000E+00
   1.710000      0.0000000E+00
   1.720000      0.0000000E+00
   1.730000      0.0000000E+00
   1.740000      0.0000000E+00
   1.750000      0.0000000E+00
   1.760000      1.9134616E-38
   1.770000      2.8141988E-38
   1.780000      3.8450069E-38
   1.790000      4.9945416E-38
   1.800000      6.2919517E-38
   1.810000      7.6844590E-38
   1.820000      9.1211515E-38
   1.830000      1.0469476E-37
   1.840000      1.1687718E-37
   1.850000      1.2995768E-37
   1.860000      1.4358673E-37
   1.870000      1.5571245E-37
   1.880000      1.6676984E-37
   1.890000      1.7959203E-37
   1.900000      1.9200031E-37
   1.910000      2.0379563E-37
   1.920000      2.1441315E-37
   1.930000      2.2159618E-37
   1.940000      2.3067597E-37
   1.950000      2.4200830E-37
   1.960000      2.5116087E-37
   1.970000      2.3894737E-37
   1.980000      1.9456666E-37
   1.990000      1.1365200E-37
   2.000000      1.9995509E-38
   2.010000     -6.8997638E-38
   2.020000     -1.7260802E-37
   2.030000     -3.1533040E-37
   2.040000     -5.0005266E-37
   2.050000     -7.0551405E-37
   2.060000     -9.2749941E-37
   2.070000     -1.1143516E-36
   2.080000     -1.2515490E-36
   2.090000     -1.3823441E-36
   2.100000     -1.5093392E-36
   2.110000     -1.6167219E-36
   2.120000     -1.7056169E-36
   2.130000     -1.7902006E-36
   2.140000     -1.8548521E-36
   2.150000     -1.8845413E-36
   2.160000     -1.8805481E-36
   2.170000     -1.8128354E-36
   2.180000     -1.6891001E-36
   2.190000     -1.5359031E-36
   2.200000     -1.3730936E-36
   2.210000     -1.2320095E-36
   2.220000     -1.0907398E-36
   2.230000     -9.2194121E-37
   2.240000     -7.4256756E-37
   2.250000     -5.5787916E-37
   2.260000     -3.6018164E-37
   2.270000     -1.7429857E-37
   2.280000      3.0032491E-38
   2.290000      2.6319051E-37
   2.300000      5.0671163E-37
   2.310000      7.8078933E-37
   2.320000      1.1101185E-36
   2.330000      1.4968886E-36
   2.340000      1.9269238E-36
   2.350000      2.3931374E-36
   2.360000      2.8843980E-36
   2.370000      3.4168691E-36
   2.380000      4.0019229E-36
   2.390000      4.6734126E-36
   2.400000      5.4779626E-36
   2.410000      6.3504325E-36
   2.420000      7.2281660E-36
   2.430000      8.1271121E-36
   2.440000      9.0244188E-36
   2.450000      9.8015774E-36
   2.460000      1.0497511E-35
   2.470000      1.1030309E-35
   2.480000      1.1343711E-35
   2.490000      1.1547306E-35
   2.500000      1.1586370E-35
   2.510000      1.1360025E-35
   2.520000      1.0884653E-35
   2.530000      1.0269737E-35
   2.540000      9.2448534E-36
   2.550000      7.7830705E-36
   2.560000      6.0705595E-36
   2.570000      4.4322974E-36
   2.580000      2.9466884E-36
   2.590000      1.3227580E-36
   2.600000     -1.8875802E-37
   2.610000     -1.7238373E-36
   2.620000     -3.5668290E-36
   2.630000     -5.3766444E-36
   2.640000     -7.0158000E-36
   2.650000     -8.6290577E-36
   2.660000     -9.9988207E-36
   2.670000     -1.1093866E-35
   2.680000     -1.2288271E-35
   2.690000     -1.3563288E-35
   2.700000     -1.4887006E-35
   2.710000     -1.6660949E-35
   2.720000     -1.8936000E-35
   2.730000     -2.1510578E-35
   2.740000     -2.4477873E-35
   2.750000     -2.8482564E-35
   2.760000     -3.2969919E-35
   2.770000     -3.7021095E-35
   2.780000     -4.1307170E-35
   2.790000     -4.5863215E-35
   2.800000     -5.0553363E-35
   2.810000     -5.5251655E-35
   2.820000     -5.9546773E-35
   2.830000     -6.3673527E-35
   2.840000     -6.7654952E-35
   2.850000     -7.1037936E-35
   2.860000     -7.3407596E-35
   2.870000     -7.4581793E-35
   2.880000     -7.4756040E-35
   2.890000     -7.4502683E-35
   2.900000     -7.3782296E-35
   2.910000     -7.2173987E-35
   2.920000     -6.9468617E-35
   2.930000     -6.5888261E-35
   2.940000     -6.1321729E-35
   2.950000     -5.5484028E-35
   2.960000     -4.8188335E-35
   2.970000     -3.9409088E-35
   2.980000     -3.0078157E-35
   2.990000     -2.0518756E-35
   3.000000     -1.0521604E-35
   3.010000      3.1580720E-37
   3.020000      1.2074161E-35
   3.030000      2.4108083E-35
   3.040000      3.6764886E-35
   3.050000      5.0008176E-35
   3.060000      6.3290097E-35
   3.070000      7.7206767E-35
   3.080000      9.2133388E-35
   3.090000      1.0832614E-34
   3.100000      1.2564714E-34
   3.110000      1.4369349E-34
   3.120000      1.6268562E-34
   3.130000      1.8259233E-34
   3.140000      2.0298602E-34
   3.150000      2.2120117E-34
   3.160000      2.3599952E-34
   3.170000      2.5245367E-34
   3.180000      2.7247622E-34
   3.190000      2.9306286E-34
   3.200000      3.1432997E-34
   3.210000      3.3739046E-34
   3.220000      3.6152914E-34
   3.230000      3.8502091E-34
   3.240000      4.0423919E-34
   3.250000      4.2160827E-34
   3.260000      4.3905265E-34
   3.270000      4.5406238E-34
   3.280000      4.6585801E-34
   3.290000      4.7351906E-34
   3.300000      4.7717453E-34
   3.310000      4.7556291E-34
   3.320000      4.6795452E-34
   3.330000      4.5502711E-34
   3.340000      4.3709793E-34
   3.350000      4.1316643E-34
   3.360000      3.8172919E-34
   3.370000      3.4381270E-34
   3.380000      3.0036264E-34
   3.390000      2.5284225E-34
   3.400000      2.0180703E-34
   3.410000      1.4408849E-34
   3.420000      8.1704991E-35
   3.430000      1.7276721E-35
   3.440000     -5.2904518E-35
   3.450000     -1.2714864E-34
   3.460000     -2.0223152E-34
   3.470000     -2.8147665E-34
   3.480000     -3.6483072E-34
   3.490000     -4.4776228E-34
   3.500000     -5.3100152E-34
   3.510000     -6.2095627E-34
   3.520000     -7.1790255E-34
   3.530000     -8.1773145E-34
   3.540000     -9.2012527E-34
   3.550000     -1.0252393E-33
   3.560000     -1.1361705E-33
   3.570000     -1.2537242E-33
   3.580000     -1.3727004E-33
   3.590000     -1.4931856E-33
   3.600000     -1.6176746E-33
   3.610000     -1.7477121E-33
   3.620000     -1.8809847E-33
   3.630000     -2.0132666E-33
   3.640000     -2.1408022E-33
   3.650000     -2.2618614E-33
   3.660000     -2.3749365E-33
   3.670000     -2.4790292E-33
   3.680000     -2.5746041E-33
   3.690000     -2.6601623E-33
   3.700000     -2.7340627E-33
   3.710000     -2.7949375E-33
   3.720000     -2.8432266E-33
   3.730000     -2.8743759E-33
   3.740000     -2.8885612E-33
   3.750000     -2.8822756E-33
   3.760000     -2.8486836E-33
   3.770000     -2.7878819E-33
   3.780000     -2.7046242E-33
   3.790000     -2.6014072E-33
   3.800000     -2.4730008E-33
   3.810000     -2.3153988E-33
   3.820000     -2.1259409E-33
   3.830000     -1.9080746E-33
   3.840000     -1.6646497E-33
   3.850000     -1.3965746E-33
   3.860000     -1.1006522E-33
   3.870000     -7.7598322E-34
   3.880000     -4.2448749E-34
   3.890000     -4.4746114E-35
   3.900000      3.6404020E-34
   3.910000      8.0244139E-34
   3.920000      1.2705629E-33
   3.930000      1.7656410E-33
   3.940000      2.2863244E-33
   3.950000      2.8353089E-33
   3.960000      3.4114602E-33
   3.970000      4.0139984E-33
   3.980000      4.6425837E-33
   3.990000      5.2961762E-33
   4.000000      5.9737256E-33
   4.010000      6.6722286E-33
   4.020000      7.3886726E-33
   4.030000      8.1210959E-33
   4.040000      8.8670279E-33
   4.050000      9.6228561E-33
   4.060000      1.0385060E-32
   4.070000      1.1149294E-32
   4.080000      1.1911058E-32
   4.090000      1.2663323E-32
   4.100000      1.3400318E-32
   4.110000      1.4117771E-32
   4.120000      1.4806575E-32
   4.130000      1.5462290E-32
   4.140000      1.6080137E-32
   4.150000      1.6650672E-32
   4.160000      1.7166042E-32
   4.170000      1.7618694E-32
   4.180000      1.8000395E-32
   4.190000      1.8304996E-32
   4.200000      1.8523299E-32
   4.210000      1.8645746E-32
   4.220000      1.8666796E-32
   4.230000      1.8579041E-32
   4.240000      1.8375015E-32
   4.250000      1.8047498E-32
   4.260000      1.7589201E-32
   4.270000      1.6993136E-32
   4.280000      1.6253114E-32
   4.290000      1.5362506E-32
   4.300000      1.4314572E-32
   4.310000      1.3103390E-32
   4.320000      1.1723143E-32
   4.330000      1.0167766E-32
   4.340000      8.4318798E-33
   4.350000      6.5099744E-33
   4.360000      4.3979795E-33
   4.370000      2.0933598E-33
   4.380000     -4.0677982E-34
   4.390000     -3.1053262E-33
   4.400000     -6.0046397E-33
   4.410000     -9.1056371E-33
   4.420000     -1.2407659E-32
   4.430000     -1.5910917E-32
   4.440000     -1.9610433E-32
   4.450000     -2.3503707E-32
   4.460000     -2.7589499E-32
   4.470000     -3.1859241E-32
   4.480000     -3.6305108E-32
   4.490000     -4.0917433E-32
   4.500000     -4.5685135E-32
   4.510000     -5.0595657E-32
   4.520000     -5.5634384E-32
   4.530000     -6.0784889E-32
   4.540000     -6.6028746E-32
   4.550000     -7.1345525E-32
   4.560000     -7.6713143E-32
   4.570000     -8.2107810E-32
   4.580000     -8.7502959E-32
   4.590000     -9.2870266E-32
   4.600000     -9.8179980E-32
   4.610000     -1.0340001E-31
   4.620000     -1.0849648E-31
   4.630000     -1.1343404E-31
   4.640000     -1.1817483E-31
   4.650000     -1.2267913E-31
   4.660000     -1.2690625E-31
   4.670000     -1.3081341E-31
   4.680000     -1.3435615E-31
   4.690000     -1.3748878E-31
   4.700000     -1.4016394E-31
   4.710000     -1.4233291E-31
   4.720000     -1.4394568E-31
   4.730000     -1.4495114E-31
   4.740000     -1.4529699E-31
   4.750000     -1.4492990E-31
   4.760000     -1.4379563E-31
   4.770000     -1.4183990E-31
   4.780000     -1.3900792E-31
   4.790000     -1.3524400E-31
   4.800000     -1.3049250E-31
   4.810000     -1.2469790E-31
   4.820000     -1.1780538E-31
   4.830000     -1.0976062E-31
   4.840000     -1.0051034E-31
   4.850000     -9.0002654E-32
   4.860000     -7.8187202E-32
   4.870000     -6.5015635E-32
   4.880000     -5.0442296E-32
   4.890000     -3.4424331E-32
   4.900000     -1.6922157E-32
   4.910000      2.1000131E-33
   4.920000      2.2673711E-32
   4.930000      4.4825787E-32
   4.940000      6.8577800E-32
   4.950000      9.3945697E-32
   4.960000      1.2093915E-31
   4.970000      1.4956106E-31
   4.980000      1.7980720E-31
   4.990000      2.1166523E-31
   5.000000      2.4511563E-31
   5.010000      2.8012914E-31
   5.020000      3.1666642E-31
   5.030000      3.5467961E-31
   5.040000      3.9410992E-31
   5.050000      4.3488777E-31
   5.060000      4.7693205E-31
   5.070000      5.2014986E-31
   5.080000      5.6443590E-31
   5.090000      6.0967212E-31
   5.100000      6.5572719E-31
   5.110000      7.0245600E-31
   5.120000      7.4969936E-31
   5.130000      7.9728356E-31
   5.140000      8.4501991E-31
   5.150000      8.9270464E-31
   5.160000      9.4011844E-31
   5.170000      9.8702593E-31
   5.180000      1.0331757E-30
   5.190000      1.0783003E-30
   5.200000      1.1221152E-30
   5.210000      1.1643197E-30
   5.220000      1.2045960E-30
   5.230000      1.2426100E-30
   5.240000      1.2780107E-30
   5.250000      1.3104309E-30
   5.260000      1.3394868E-30
   5.270000      1.3647793E-30
   5.280000      1.3858934E-30
   5.290000      1.4023996E-30
   5.300000      1.4138541E-30
   5.310000      1.4198000E-30
   5.320000      1.4197676E-30
   5.330000      1.4132762E-30
   5.340000      1.3998346E-30
   5.350000      1.3789432E-30
   5.360000      1.3500945E-30
   5.370000      1.3127756E-30
   5.380000      1.2664699E-30
   5.390000      1.2106579E-30
   5.400000      1.1448203E-30
   5.410000      1.0684400E-30
   5.420000      9.8100477E-31
   5.430000      8.8200915E-31
   5.440000      7.7095733E-31
   5.450000      6.4736623E-31
   5.460000      5.1076880E-31
   5.470000      3.6071626E-31
   5.480000      1.9678165E-31
   5.490000      1.8563902E-32
   5.500000     -1.7430897E-31
   5.510000     -3.8217588E-31
   5.520000     -6.0533873E-31
   5.530000     -8.4405855E-31
   5.540000     -1.0985513E-30
   5.550000     -1.3689834E-30
   5.560000     -1.6554666E-30
   5.570000     -1.9580548E-30
   5.580000     -2.2767377E-30
   5.590000     -2.6114363E-30
   5.600000     -2.9619983E-30
   5.610000     -3.3281924E-30
   5.620000     -3.7097029E-30
   5.630000     -4.1061259E-30
   5.640000     -4.5169621E-30
   5.650000     -4.9416112E-30
   5.660000     -5.3793680E-30
   5.670000     -5.8294157E-30
   5.680000     -6.2908222E-30
   5.690000     -6.7625329E-30
   5.700000     -7.2433653E-30
   5.710000     -7.7320076E-30
   5.720000     -8.2270085E-30
   5.730000     -8.7267768E-30
   5.740000     -9.2295754E-30
   5.750000     -9.7335160E-30
   5.760000     -1.0236558E-29
   5.770000     -1.0736503E-29
   5.780000     -1.1230993E-29
   5.790000     -1.1717505E-29
   5.800000     -1.2193353E-29
   5.810000     -1.2655684E-29
   5.820000     -1.3101477E-29
   5.830000     -1.3527545E-29
   5.840000     -1.3930530E-29
   5.850000     -1.4306909E-29
   5.860000     -1.4652994E-29
   5.870000     -1.4964935E-29
   5.880000     -1.5238719E-29
   5.890000     -1.5470183E-29
   5.900000     -1.5655012E-29
   5.910000     -1.5788747E-29
   5.920000     -1.5866795E-29
   5.930000     -1.5884431E-29
   5.940000     -1.5836815E-29
   5.950000     -1.5718999E-29
   5.960000     -1.5525932E-29
   5.970000     -1.5252494E-29
   5.980000     -1.4893487E-29
   5.990000     -1.4443665E-29
   6.000000     -1.3897748E-29
   6.010000     -1.3250437E-29
   6.020000     -1.2496445E-29
   6.030000     -1.1630513E-29
   6.040000     -1.0647427E-29
   6.050000     -9.5420568E-30
   6.060000     -8.3093728E-30
   6.070000     -6.9444761E-30
   6.080000     -5.4426397E-30
   6.090000     -3.7993301E-30
   6.100000     -2.0102385E-30
   6.110000     -7.1322021E-32
   6.120000      2.0211578E-30
   6.130000      4.2706007E-30
   6.140000      6.6800256E-30
   6.150000      9.2520290E-30
   6.160000      1.1988749E-29
   6.170000      1.4891812E-29
   6.180000      1.7962288E-29
   6.190000      2.1200655E-29
   6.200000      2.4606739E-29
   6.210000      2.8179677E-29
   6.220000      3.1917862E-29
   6.230000      3.5818893E-29
   6.240000      3.9879536E-29
   6.250000      4.4095653E-29
   6.260000      4.8462172E-29
   6.270000      5.2973028E-29
   6.280000      5.7621110E-29
   6.290000      6.2398216E-29
   6.300000      6.7295008E-29
   6.310000      7.2300969E-29
   6.320000      7.7404328E-29
   6.330000      8.2592061E-29
   6.340000      8.7849808E-29
   6.350000      9.3161848E-29
   6.360000      9.8511064E-29
   6.370000      1.0387891E-28
   6.380000      1.0924535E-28
   6.390000      1.1458890E-28
   6.400000      1.1988649E-28
   6.410000      1.2511360E-28
   6.420000      1.3024407E-28
   6.430000      1.3525022E-28
   6.440000      1.4010281E-28
   6.450000      1.4477097E-28
   6.460000      1.4922235E-28
   6.470000      1.5342299E-28
   6.480000      1.5733745E-28
   6.490000      1.6092877E-28
   6.500000      1.6415854E-28
   6.510000      1.6698697E-28
   6.520000      1.6937289E-28
   6.530000      1.7127380E-28
   6.540000      1.7264609E-28
   6.550000      1.7344493E-28
   6.560000      1.7362450E-28
   6.570000      1.7313803E-28
   6.580000      1.7193794E-28
   6.590000      1.6997598E-28
   6.600000      1.6720338E-28
   6.610000      1.6357093E-28
   6.620000      1.5902921E-28
   6.630000      1.5352878E-28
   6.640000      1.4702029E-28
   6.650000      1.3945479E-28
   6.660000      1.3078385E-28
   6.670000      1.2095984E-28
   6.680000      1.0993617E-28
   6.690000      9.7667561E-29
   6.700000      8.4110230E-29
   6.710000      6.9222219E-29
   6.720000      5.2963729E-29
   6.730000      3.5297403E-29
   6.740000      1.6188598E-29
   6.750000     -4.3942875E-30
   6.760000     -2.6479406E-29
   6.770000     -5.0091118E-29
   6.780000     -7.5249712E-29
   6.790000     -1.0197098E-28
   6.800000     -1.3026592E-28
   6.810000     -1.6014018E-28
   6.820000     -1.9159388E-28
   6.830000     -2.2462109E-28
   6.840000     -2.5920942E-28
   6.850000     -2.9533972E-28
   6.860000     -3.3298558E-28
   6.870000     -3.7211309E-28
   6.880000     -4.1268018E-28
   6.890000     -4.5463647E-28
   6.900000     -4.9792271E-28
   6.910000     -5.4247048E-28
   6.920000     -5.8820197E-28
   6.930000     -6.3502927E-28
   6.940000     -6.8285440E-28
   6.950000     -7.3156868E-28
   6.960000     -7.8105251E-28
   6.970000     -8.3117522E-28
   6.980000     -8.8179463E-28
   6.990000     -9.3275686E-28
   7.000000     -9.8389598E-28
   7.010000     -1.0350342E-27
   7.020000     -1.0859812E-27
   7.030000     -1.1365344E-27
   7.040000     -1.1864788E-27
   7.050000     -1.2355867E-27
   7.060000     -1.2836182E-27