  -2.600000      0.0000000E+00
  -2.590000      0.0000000E+00
  -2.580000      0.0000000E+00
  -2.570000      0.0000000E+00
  -2.560000      0.0000000E+00
  -2.550000      0.0000000E+00
  -2.540000      0.0000000E+00
  -2.530000      0.0000000E+00
  -2.520000      0.0000000E+00
  -2.510000      0.0000000E+00
  -2.500000      0.0000000E+00
  -2.490000      0.0000000E+00
  -2.480000      0.0000000E+00
  -2.470000      0.0000000E+00
  -2.460000      0.0000000E+00
  -2.450000      0.0000000E+00
  -2.440000      0.0000000E+00
  -2.430000      0.0000000E+00
  -2.420000      0.0000000E+00
  -2.410000      0.0000000E+00
  -2.400000      0.0000000E+00
  -2.390000      0.0000000E+00
  -2.380000      0.0000000E+00
  -2.370000      0.0000000E+00
  -2.360000      0.0000000E+00
  -2.350000      0.0000000E+00
  -2.340000      0.0000000E+00
  -2.330000      0.0000000E+00
  -2.320000      0.0000000E+00
  -2.310000      0.0000000E+00
  -2.300000      0.0000000E+00
  -2.290000      0.0000000E+00
  -2.280000      0.0000000E+00
  -2.270000      0.0000000E+00
  -2.260000      0.0000000E+00
  -2.250000      0.0000000E+00
  -2.240000      0.0000000E+00
  -2.230000      0.0000000E+00
  -2.220000      0.0000000E+00
  -2.210000      0.0000000E+00
  -2.200000      0.0000000E+00
  -2.190000      0.0000000E+00
  -2.180000      0.0000000E+00
  -2.170000      0.0000000E+00
  -2.160000      0.0000000E+00
  -2.150000      0.0000000E+00
  -2.140000      0.0000000E+00
  -2.130000      0.0000000E+00
  -2.120000      0.0000000E+00
  -2.110000      0.0000000E+00
  -2.100000      0.0000000E+00
  -2.090000      0.0000000E+00
  -2.080000      0.0000000E+00
  -2.070000      0.0000000E+00
  -2.060000      0.0000000E+00
  -2.050000      0.0000000E+00
  -2.040000      0.0000000E+00
  -2.030000      0.0000000E+00
  -2.020000      0.0000000E+00
  -2.010000      0.0000000E+00
  -2.000000      0.0000000E+00
  -1.990000      0.0000000E+00
  -1.980000      0.0000000E+00
  -1.970000      0.0000000E+00
  -1.960000      0.0000000E+00
  -1.950000      0.0000000E+00
  -1.940000      0.0000000E+00
  -1.930000      0.0000000E+00
  -1.920000      0.0000000E+00
  -1.910000      0.0000000E+00
  -1.900000      0.0000000E+00
  -1.890000      0.0000000E+00
  -1.880000      0.0000000E+00
  -1.870000      0.0000000E+00
  -1.860000      0.0000000E+00
  -1.850000      0.0000000E+00
  -1.840000      0.0000000E+00
  -1.830000      0.0000000E+00
  -1.820000      0.0000000E+00
  -1.810000      0.0000000E+00
  -1.800000      0.0000000E+00
  -1.790000      0.0000000E+00
  -1.780000      0.0000000E+00
  -1.770000      0.0000000E+00
  -1.760000      0.0000000E+00
  -1.750000      0.0000000E+00
  -1.740000      0.0000000E+00
  -1.730000      0.0000000E+00
  -1.720000      0.0000000E+00
  -1.710000      0.0000000E+00
  -1.700000      0.0000000E+00
  -1.690000      0.0000000E+00
  -1.680000      0.0000000E+00
  -1.670000      0.0000000E+00
  -1.660000      0.0000000E+00
  -1.650000      0.0000000E+00
  -1.640000      0.0000000E+00
  -1.630000      0.0000000E+00
  -1.620000      0.0000000E+00
  -1.610000      0.0000000E+00
  -1.600000      0.0000000E+00
  -1.590000      0.0000000E+00
  -1.580000      0.0000000E+00
  -1.570000      0.0000000E+00
  -1.560000      0.0000000E+00
  -1.550000      0.0000000E+00
  -1.540000      0.0000000E+00
  -1.530000      0.0000000E+00
  -1.520000      0.0000000E+00
  -1.510000      0.0000000E+00
  -1.500000      0.0000000E+00
  -1.490000      0.0000000E+00
  -1.480000      0.0000000E+00
  -1.470000      0.0000000E+00
  -1.460000      0.0000000E+00
  -1.450000      0.0000000E+00
  -1.440000      0.0000000E+00
  -1.430000      0.0000000E+00
  -1.420000      0.0000000E+00
  -1.410000      0.0000000E+00
  -1.400000      0.0000000E+00
  -1.390000      0.0000000E+00
  -1.380000      0.0000000E+00
  -1.370000      0.0000000E+00
  -1.360000      0.0000000E+00
  -1.350000      0.0000000E+00
  -1.340000      0.0000000E+00
  -1.330000      0.0000000E+00
  -1.320000      0.0000000E+00
  -1.310000      0.0000000E+00
  -1.300000      0.0000000E+00
  -1.290000      0.0000000E+00
  -1.280000      0.0000000E+00
  -1.270000      0.0000000E+00
  -1.260000      0.0000000E+00
  -1.250000      0.0000000E+00
  -1.240000      0.0000000E+00
  -1.230000      0.0000000E+00
  -1.220000      0.0000000E+00
  -1.210000      0.0000000E+00
  -1.200000      0.0000000E+00
  -1.190000      0.0000000E+00
  -1.180000      0.0000000E+00
  -1.170000      0.0000000E+00
  -1.160000      0.0000000E+00
  -1.150000      0.0000000E+00
  -1.140000      0.0000000E+00
  -1.130000      0.0000000E+00
  -1.120000      0.0000000E+00
  -1.110000      0.0000000E+00
  -1.100000      0.0000000E+00
  -1.090000      0.0000000E+00
  -1.080000      0.0000000E+00
  -1.070000      0.0000000E+00
  -1.060000      0.0000000E+00
  -1.050000      0.0000000E+00
  -1.040000      0.0000000E+00
  -1.030000      0.0000000E+00
  -1.020000      0.0000000E+00
  -1.010000      0.0000000E+00
  -1.000000      0.0000000E+00
 -0.9900000      0.0000000E+00
 -0.9800000      0.0000000E+00
 -0.9700000      0.0000000E+00
 -0.9600000      0.0000000E+00
 -0.9500000      0.0000000E+00
 -0.9400000      0.0000000E+00
 -0.9300000      0.0000000E+00
 -0.9200000      0.0000000E+00
 -0.9100000      0.0000000E+00
 -0.9000000      0.0000000E+00
 -0.8900000      0.0000000E+00
 -0.8800000      0.0000000E+00
 -0.8700000      0.0000000E+00
 -0.8600000      0.0000000E+00
 -0.8500000      0.0000000E+00
 -0.8400000      0.0000000E+00
 -0.8300000      0.0000000E+00
 -0.8200000      0.0000000E+00
 -0.8100000      0.0000000E+00
 -0.8000000      0.0000000E+00
 -0.7900000      0.0000000E+00
 -0.7800000      0.0000000E+00
 -0.7700000      0.0000000E+00
 -0.7600000      0.0000000E+00
 -0.7500000      0.0000000E+00
 -0.7400000      0.0000000E+00
 -0.7300000      0.0000000E+00
 -0.7200000      0.0000000E+00
 -0.7100000      0.0000000E+00
 -0.7000000      0.0000000E+00
 -0.6900000      0.0000000E+00
 -0.6800000      0.0000000E+00
 -0.6700000      0.0000000E+00
 -0.6600000      0.0000000E+00
 -0.6500000      0.0000000E+00
 -0.6400000      0.0000000E+00
 -0.6300000      0.0000000E+00
 -0.6200000      0.0000000E+00
 -0.6100000      0.0000000E+00
 -0.6000000      0.0000000E+00
 -0.5900000      0.0000000E+00
 -0.5800000      0.0000000E+00
 -0.5700000      0.0000000E+00
 -0.5600000      0.0000000E+00
 -0.5500000      0.0000000E+00
 -0.5400000      0.0000000E+00
 -0.5300000      0.0000000E+00
 -0.5200000      0.0000000E+00
 -0.5100000      0.0000000E+00
 -0.5000000      0.0000000E+00
 -0.4900000      0.0000000E+00
 -0.4800000      0.0000000E+00
 -0.4700000      0.0000000E+00
 -0.4600000      0.0000000E+00
 -0.4500000      0.0000000E+00
 -0.4400000      0.0000000E+00
 -0.4300000      0.0000000E+00
 -0.4200000      0.0000000E+00
 -0.4100000      0.0000000E+00
 -0.4000000      0.0000000E+00
 -0.3900000      0.0000000E+00
 -0.3800000      0.0000000E+00
 -0.3700000      0.0000000E+00
 -0.3600000      0.0000000E+00
 -0.3500000      0.0000000E+00
 -0.3400000      0.0000000E+00
 -0.3300000      0.0000000E+00
 -0.3200000      0.0000000E+00
 -0.3100000      0.0000000E+00
 -0.3000000      0.0000000E+00
 -0.2900000      0.0000000E+00
 -0.2800000      0.0000000E+00
 -0.2700000      0.0000000E+00
 -0.2600000      0.0000000E+00
 -0.2500000      0.0000000E+00
 -0.2400000      0.0000000E+00
 -0.2300000      0.0000000E+00
 -0.2200000      0.0000000E+00
 -0.2100000      0.0000000E+00
 -0.2000000      0.0000000E+00
 -0.1900000      0.0000000E+00
 -0.1800000      0.0000000E+00
 -0.1700000      0.0000000E+00
 -0.1600000      0.0000000E+00
 -0.1500000      0.0000000E+00
 -0.1400000      0.0000000E+00
 -0.1300000      0.0000000E+00
 -0.1200000      0.0000000E+00
 -0.1100000      0.0000000E+00
 -0.1000000      0.0000000E+00
 -9.0000004E-02  0.0000000E+00
 -7.9999998E-02  0.0000000E+00
 -7.0000000E-02  0.0000000E+00
 -5.9999999E-02  0.0000000E+00
 -5.0000001E-02  0.0000000E+00
 -3.9999999E-02  0.0000000E+00
 -2.9999999E-02  0.0000000E+00
 -2.0000000E-02  0.0000000E+00
 -9.9999998E-03  0.0000000E+00
 -3.4694470E-17  0.0000000E+00
  9.9999998E-03  0.0000000E+00
  2.0000000E-02  0.0000000E+00
  2.9999999E-02  0.0000000E+00
  3.9999999E-02  0.0000000E+00
  5.0000001E-02  0.0000000E+00
  5.9999999E-02  0.0000000E+00
  7.0000000E-02  0.0000000E+00
  7.9999998E-02  0.0000000E+00
  9.0000004E-02  0.0000000E+00
  0.1000000      0.0000000E+00
  0.1100000      0.0000000E+00
  0.1200000      0.0000000E+00
  0.1300000      0.0000000E+00
  0.1400000      0.0000000E+00
  0.1500000      0.0000000E+00
  0.1600000      0.0000000E+00
  0.1700000      0.0000000E+00
  0.1800000      0.0000000E+00
  0.1900000      0.0000000E+00
  0.2000000      0.0000000E+00
  0.2100000      0.0000000E+00
  0.2200000      0.0000000E+00
  0.2300000      0.0000000E+00
  0.2400000      0.0000000E+00
  0.2500000      0.0000000E+00
  0.2600000      0.0000000E+00
  0.2700000      0.0000000E+00
  0.2800000      0.0000000E+00
  0.2900000      0.0000000E+00
  0.3000000      0.0000000E+00
  0.3100000      0.0000000E+00
  0.3200000      0.0000000E+00
  0.3300000      0.0000000E+00
  0.3400000      0.0000000E+00
  0.3500000      0.0000000E+00
  0.3600000      0.0000000E+00
  0.3700000      0.0000000E+00
  0.3800000      0.0000000E+00
  0.3900000      0.0000000E+00
  0.4000000      0.0000000E+00
  0.4100000      0.0000000E+00
  0.4200000      0.0000000E+00
  0.4300000      0.0000000E+00
  0.4400000      0.0000000E+00
  0.4500000      0.0000000E+00
  0.4600000      0.0000000E+00
  0.4700000      0.0000000E+00
  0.4800000      0.0000000E+00
  0.4900000      0.0000000E+00
  0.5000000      0.0000000E+00
  0.5100000      0.0000000E+00
  0.5200000      0.0000000E+00
  0.5300000      0.0000000E+00
  0.5400000      0.0000000E+00
  0.5500000      0.0000000E+00
  0.5600000      0.0000000E+00
  0.5700000      0.0000000E+00
  0.5800000      0.0000000E+00
  0.5900000      0.0000000E+00
  0.6000000      0.0000000E+00
  0.6100000      0.0000000E+00
  0.6200000      0.0000000E+00
  0.6300000      0.0000000E+00
  0.6400000      0.0000000E+00
  0.6500000      0.0000000E+00
  0.6600000      0.0000000E+00
  0.6700000      0.0000000E+00
  0.6800000      0.0000000E+00
  0.6900000      0.0000000E+00
  0.7000000      0.0000000E+00
  0.7100000      0.0000000E+00
  0.7200000      0.0000000E+00
  0.7300000      0.0000000E+00
  0.7400000      0.0000000E+00
  0.7500000      0.0000000E+00
  0.7600000      0.0000000E+00
  0.7700000      0.0000000E+00
  0.7800000      0.0000000E+00
  0.7900000      0.0000000E+00
  0.8000000      0.0000000E+00
  0.8100000      0.0000000E+00
  0.8200000      0.0000000E+00
  0.8300000      0.0000000E+00
  0.8400000      0.0000000E+00
  0.8500000      0.0000000E+00
  0.8600000      0.0000000E+00
  0.8700000      0.0000000E+00
  0.8800000      0.0000000E+00
  0.8900000      0.0000000E+00
  0.9000000      0.0000000E+00
  0.9100000      0.0000000E+00
  0.9200000      0.0000000E+00
  0.9300000      0.0000000E+00
  0.9400000      0.0000000E+00
  0.9500000      0.0000000E+00
  0.9600000      0.0000000E+00
  0.9700000      0.0000000E+00
  0.9800000      0.0000000E+00
  0.9900000      0.0000000E+00
   1.000000      0.0000000E+00
   1.010000      0.0000000E+00
   1.020000      0.0000000E+00
   1.030000      0.0000000E+00
   1.040000      0.0000000E+00
   1.050000      0.0000000E+00
   1.060000      0.0000000E+00
   1.070000      0.0000000E+00
   1.080000      0.0000000E+00
   1.090000      0.0000000E+00
   1.100000      0.0000000E+00
   1.110000      0.0000000E+00
   1.120000      0.0000000E+00
   1.130000      0.0000000E+00
   1.140000      0.0000000E+00
   1.150000      0.0000000E+00
   1.160000      0.0000000E+00
   1.170000      0.0000000E+00
   1.180000      0.0000000E+00
   1.190000      0.0000000E+00
   1.200000      0.0000000E+00
   1.210000      0.0000000E+00
   1.220000      0.0000000E+00
   1.230000      0.0000000E+00
   1.240000      0.0000000E+00
   1.250000      0.0000000E+00
   1.260000      0.0000000E+00
   1.270000      0.0000000E+00
   1.280000      0.0000000E+00
   1.290000      0.0000000E+00
   1.300000      0.0000000E+00
   1.310000      0.0000000E+00
   1.320000      0.0000000E+00
   1.330000      0.0000000E+00
   1.340000      0.0000000E+00
   1.350000      0.0000000E+00
   1.360000      0.0000000E+00
   1.370000      0.0000000E+00
   1.380000      0.0000000E+00
   1.390000      0.0000000E+00
   1.400000      0.0000000E+00
   1.410000      0.0000000E+00
   1.420000      0.0000000E+00
   1.430000      0.0000000E+00
   1.440000      0.0000000E+00
   1.450000      0.0000000E+00
   1.460000      0.0000000E+00
   1.470000      0.0000000E+00
   1.480000      0.0000000E+00
   1.490000      0.0000000E+00
   1.500000      0.0000000E+00
   1.510000      0.0000000E+00
   1.520000      0.0000000E+00
   1.530000      0.0000000E+00
   1.540000      0.0000000E+00
   1.550000      0.0000000E+00
   1.560000      0.0000000E+00
   1.570000      0.0000000E+00
   1.580000      0.0000000E+00
   1.590000      0.0000000E+00
   1.600000      0.0000000E+00
   1.610000      0.0000000E+00
   1.620000      0.0000000E+00
   1.630000      0.0000000E+00
   1.640000     -1.3802295E-38
   1.650000     -1.7899609E-38
   1.660000     -2.2119384E-38
   1.670000     -2.6401615E-38
   1.680000     -3.0609002E-38
   1.690000     -3.4743828E-38
   1.700000     -3.8805968E-38
   1.710000     -4.2650918E-38
   1.720000     -4.5267565E-38
   1.730000     -4.6422871E-38
   1.740000     -4.6830896E-38
   1.750000     -4.6076759E-38
   1.760000     -4.3986033E-38
   1.770000     -4.0633342E-38
   1.780000     -3.5757535E-38
   1.790000     -2.9062756E-38
   1.800000     -2.0647579E-38
   1.810000      0.0000000E+00
   1.820000      0.0000000E+00
   1.830000      1.2573704E-38
   1.840000      2.4426605E-38
   1.850000      3.7405959E-38
   1.860000      5.1589946E-38
   1.870000      6.7107982E-38
   1.880000      8.3938417E-38
   1.890000      1.0225645E-37
   1.900000      1.1441896E-37
   1.910000      1.1695980E-37
   1.920000      1.1517352E-37
   1.930000      9.3874374E-38
   1.940000      5.1405474E-38
   1.950000      0.0000000E+00
   1.960000     -5.4933859E-38
   1.970000     -1.2050439E-37
   1.980000     -1.9948340E-37
   1.990000     -2.3058646E-37
   2.000000     -1.8556019E-37
   2.010000     -1.0765947E-37
   2.020000      0.0000000E+00
   2.030000      9.9836552E-38
   2.040000      2.0211993E-37
   2.050000      2.9082075E-37
   2.060000      3.8895494E-37
   2.070000      5.7186865E-37
   2.080000      7.1781458E-37
   2.090000      7.8410017E-37
   2.100000      8.7646560E-37
   2.110000      9.7175219E-37
   2.120000      1.0734676E-36
   2.130000      1.2151850E-36
   2.140000      1.5007819E-36
   2.150000      1.9074541E-36
   2.160000      2.1632481E-36
   2.170000      2.1582536E-36
   2.180000      2.0032150E-36
   2.190000      1.8328596E-36
   2.200000      1.7200778E-36
   2.210000      1.6912603E-36
   2.220000      1.8479885E-36
   2.230000      1.9933669E-36
   2.240000      1.9501307E-36
   2.250000      1.8056180E-36
   2.260000      1.5917687E-36
   2.270000      1.1046602E-36
   2.280000      3.3885769E-37
   2.290000     -6.5568499E-37
   2.300000     -1.8601536E-36
   2.310000     -2.8277471E-36
   2.320000     -3.5685563E-36
   2.330000     -4.4089605E-36
   2.340000     -5.0930531E-36
   2.350000     -5.7398426E-36
   2.360000     -6.7034345E-36
   2.370000     -7.8710719E-36
   2.380000     -9.1937498E-36
   2.390000     -1.0718576E-35
   2.400000     -1.2544707E-35
   2.410000     -1.3840073E-35
   2.420000     -1.3854287E-35
   2.430000     -1.2928693E-35
   2.440000     -1.2094267E-35
   2.450000     -1.1852253E-35
   2.460000     -1.1859757E-35
   2.470000     -1.1978592E-35
   2.480000     -1.2171568E-35
   2.490000     -1.2189777E-35
   2.500000     -1.1921623E-35
   2.510000     -1.0120731E-35
   2.520000     -7.5668230E-36
   2.530000     -5.9981023E-36
   2.540000     -4.7335351E-36
   2.550000     -3.7524482E-36
   2.560000     -3.7378668E-36
   2.570000     -4.3095407E-36
   2.580000     -5.1879881E-36
   2.590000     -5.5851174E-36
   2.600000     -3.7456790E-36
   2.610000     -6.0143635E-38
   2.620000      4.2954378E-36
   2.630000      9.3232809E-36
   2.640000      1.5883377E-35
   2.650000      2.2961201E-35
   2.660000      2.8603861E-35
   2.670000      3.3111523E-35
   2.680000      3.6579180E-35
   2.690000      3.8747049E-35
   2.700000      4.0493619E-35
   2.710000      4.2240339E-35
   2.720000      4.4101162E-35
   2.730000      4.6390400E-35
   2.740000      4.9579912E-35
   2.750000      5.3700852E-35
   2.760000      5.8633911E-35
   2.770000      6.4403367E-35
   2.780000      7.0962809E-35
   2.790000      7.8285358E-35
   2.800000      8.6079287E-35
   2.810000      9.3017884E-35
   2.820000      9.7546883E-35
   2.830000      9.9052561E-35
   2.840000      9.7903848E-35
   2.850000      9.4365530E-35
   2.860000      8.8072376E-35
   2.870000      7.9972916E-35
   2.880000      7.1182089E-35
   2.890000      6.1855144E-35
   2.900000      5.3829089E-35
   2.910000      4.8139791E-35
   2.920000      4.1420257E-35
   2.930000      3.2458189E-35
   2.940000      2.2718934E-35
   2.950000      1.2665289E-35
   2.960000      2.7421035E-36
   2.970000     -5.7673861E-36
   2.980000     -1.5345275E-35
   2.990000     -2.9181455E-35
   3.000000     -4.6191091E-35
   3.010000     -6.4928890E-35
   3.020000     -8.6549875E-35
   3.030000     -1.1188678E-34
   3.040000     -1.3968120E-34
   3.050000     -1.6679744E-34
   3.060000     -1.9083299E-34
   3.070000     -2.1525905E-34
   3.080000     -2.4210213E-34
   3.090000     -2.6950412E-34
   3.100000     -2.9240890E-34
   3.110000     -3.0655529E-34
   3.120000     -3.1298639E-34
   3.130000     -3.1437005E-34
   3.140000     -3.1498308E-34
   3.150000     -3.1785110E-34
   3.160000     -3.2367634E-34
   3.170000     -3.3842769E-34
   3.180000     -3.5985422E-34
   3.190000     -3.8140289E-34
   3.200000     -4.1108006E-34
   3.210000     -4.4951992E-34
   3.220000     -4.8873331E-34
   3.230000     -5.2303979E-34
   3.240000     -5.4781292E-34
   3.250000     -5.5537337E-34
   3.260000     -5.4491900E-34
   3.270000     -5.2237458E-34
   3.280000     -4.8644840E-34
   3.290000     -4.3652199E-34
   3.300000     -3.7565721E-34
   3.310000     -3.1217112E-34
   3.320000     -2.5976510E-34
   3.330000     -2.1463767E-34
   3.340000     -1.6911708E-34
   3.350000     -1.2509206E-34
   3.360000     -8.3558225E-35
   3.370000     -5.0696764E-35
   3.380000     -1.7382138E-35
   3.390000      1.8978341E-35
   3.400000      5.4167979E-35
   3.410000      1.0509446E-34
   3.420000      1.7515314E-34
   3.430000      2.6026182E-34
   3.440000      3.6443020E-34
   3.450000      4.9027560E-34
   3.460000      6.3831047E-34
   3.470000      7.9941165E-34
   3.480000      9.5816179E-34
   3.490000      1.1168012E-33
   3.500000      1.2835356E-33
   3.510000      1.4469041E-33
   3.520000      1.5995170E-33
   3.530000      1.7353320E-33
   3.540000      1.8507473E-33
   3.550000      1.9557847E-33
   3.560000      2.0592444E-33
   3.570000      2.1618888E-33
   3.580000      2.2622986E-33
   3.590000      2.3658820E-33
   3.600000      2.4768628E-33
   3.610000      2.5915589E-33
   3.620000      2.7010724E-33
   3.630000      2.8007760E-33
   3.640000      2.8893831E-33
   3.650000      2.9645031E-33
   3.660000      3.0240790E-33
   3.670000      3.0672600E-33
   3.680000      3.0842448E-33
   3.690000      3.0633607E-33
   3.700000      3.0089465E-33
   3.710000      2.9231712E-33
   3.720000      2.8031268E-33
   3.730000      2.6508810E-33
   3.740000      2.4690491E-33
   3.750000      2.2656311E-33
   3.760000      2.0444830E-33
   3.770000      1.8114524E-33
   3.780000      1.5592112E-33
   3.790000      1.2724949E-33
   3.800000      9.5331986E-34
   3.810000      6.1112881E-34
   3.820000      2.4725270E-34
   3.830000     -1.5400706E-34
   3.840000     -5.9176268E-34
   3.850000     -1.0631360E-33
   3.860000     -1.5768658E-33
   3.870000     -2.1333529E-33
   3.880000     -2.7377688E-33
   3.890000     -3.3903671E-33
   3.900000     -4.0825532E-33
   3.910000     -4.8128735E-33
   3.920000     -5.5773365E-33
   3.930000     -6.3678072E-33
   3.940000     -7.1762174E-33
   3.950000     -7.9983170E-33
   3.960000     -8.8263139E-33
   3.970000     -9.6569293E-33
   3.980000     -1.0489378E-32
   3.990000     -1.1315093E-32
   4.000000     -1.2132913E-32
   4.010000     -1.2947319E-32
   4.020000     -1.3752931E-32
   4.030000     -1.4545023E-32
   4.040000     -1.5326692E-32
   4.050000     -1.6095248E-32
   4.060000     -1.6843797E-32
   4.070000     -1.7565081E-32
   4.080000     -1.8247388E-32
   4.090000     -1.8877095E-32
   4.100000     -1.9440905E-32
   4.110000     -1.9926118E-32
   4.120000     -2.0322641E-32
   4.130000     -2.0620316E-32
   4.140000     -2.0806995E-32
   4.150000     -2.0871632E-32
   4.160000     -2.0807405E-32
   4.170000     -2.0609444E-32
   4.180000     -2.0270463E-32
   4.190000     -1.9787154E-32
   4.200000     -1.9157311E-32
   4.210000     -1.8374355E-32
   4.220000     -1.7430606E-32
   4.230000     -1.6319425E-32
   4.240000     -1.5030198E-32
   4.250000     -1.3552477E-32
   4.260000     -1.1872976E-32
   4.270000     -9.9802630E-33
   4.280000     -7.8616012E-33
   4.290000     -5.5028355E-33
   4.300000     -2.8989915E-33
   4.310000     -4.4558491E-35
   4.320000      3.0621360E-33
   4.330000      6.4232788E-33
   4.340000      1.0039783E-32
   4.350000      1.3904251E-32
   4.360000      1.8008897E-32
   4.370000      2.2348306E-32
   4.380000      2.6914889E-32
   4.390000      3.1701355E-32
   4.400000      3.6700341E-32
   4.410000      4.1905025E-32
   4.420000      4.7307791E-32
   4.430000      5.2899514E-32
   4.440000      5.8672538E-32
   4.450000      6.4617207E-32
   4.460000      7.0719174E-32
   4.470000      7.6961425E-32
   4.480000      8.3323171E-32
   4.490000      8.9780432E-32
   4.500000      9.6305072E-32
   4.510000      1.0286454E-31
   4.520000      1.0942284E-31
   4.530000      1.1594143E-31
   4.540000      1.2237964E-31
   4.550000      1.2869514E-31
   4.560000      1.3484459E-31
   4.570000      1.4078442E-31
   4.580000      1.4647055E-31
   4.590000      1.5185719E-31
   4.600000      1.5689901E-31
   4.610000      1.6154972E-31
   4.620000      1.6576013E-31
   4.630000      1.6947638E-31
   4.640000      1.7264176E-31
   4.650000      1.7519795E-31
   4.660000      1.7708196E-31
   4.670000      1.7822732E-31
   4.680000      1.7856436E-31
   4.690000      1.7802152E-31
   4.700000      1.7652556E-31
   4.710000      1.7400228E-31
   4.720000      1.7037742E-31
   4.730000      1.6557776E-31
   4.740000      1.5953240E-31
   4.750000      1.5217242E-31
   4.760000      1.4343123E-31
   4.770000      1.3324478E-31
   4.780000      1.2155123E-31
   4.790000      1.0829442E-31
   4.800000      9.3412181E-32
   4.810000      7.6843947E-32
   4.820000      5.8538437E-32
   4.830000      3.8442533E-32
   4.840000      1.6505379E-32
   4.850000     -7.3210031E-33
   4.860000     -3.3080750E-32
   4.870000     -6.0813242E-32
   4.880000     -9.0551715E-32
   4.890000     -1.2232179E-31
   4.900000     -1.5614076E-31
   4.910000     -1.9201631E-31
   4.920000     -2.2994546E-31
   4.930000     -2.6991429E-31
   4.940000     -3.1189744E-31
   4.950000     -3.5585795E-31
   4.960000     -4.0174711E-31
   4.970000     -4.4950476E-31
   4.980000     -4.9905881E-31
   4.990000     -5.5032550E-31
   5.000000     -6.0320883E-31
   5.010000     -6.5760003E-31
   5.020000     -7.1337658E-31
   5.030000     -7.7040160E-31
   5.040000     -8.2852227E-31
   5.050000     -8.8756867E-31
   5.060000     -9.4735243E-31
   5.070000     -1.0076659E-30
   5.080000     -1.0682811E-30
   5.090000     -1.1289484E-30
   5.100000     -1.1893968E-30
   5.110000     -1.2493335E-30
   5.120000     -1.3084448E-30
   5.130000     -1.3663951E-30
   5.140000     -1.4228285E-30
   5.150000     -1.4773692E-30
   5.160000     -1.5296216E-30
   5.170000     -1.5791713E-30
   5.180000     -1.6255847E-30
   5.190000     -1.6684098E-30
   5.200000     -1.7071761E-30
   5.210000     -1.7413943E-30
   5.220000     -1.7705559E-30
   5.230000     -1.7941339E-30
   5.240000     -1.8115827E-30
   5.250000     -1.8223384E-30
   5.260000     -1.8258194E-30
   5.270000     -1.8214277E-30
   5.280000     -1.8085517E-30
   5.290000     -1.7865656E-30
   5.300000     -1.7548340E-30
   5.310000     -1.7127135E-30
   5.320000     -1.6595554E-30
   5.330000     -1.5947087E-30
   5.340000     -1.5175227E-30
   5.350000     -1.4273450E-30
   5.360000     -1.3235386E-30
   5.370000     -1.2054740E-30
   5.380000     -1.0725245E-30
   5.390000     -9.2408103E-31
   5.400000     -7.5955089E-31
   5.410000     -5.7836170E-31
   5.420000     -3.7996468E-31
   5.430000     -1.6383792E-31
   5.440000      7.0508437E-32
   5.450000      3.2352691E-31
   5.460000      5.9562807E-31
   5.470000      8.8717474E-31
   5.480000      1.1984759E-30
   5.490000      1.5297812E-30
   5.500000      1.8812736E-30
   5.510000      2.2530651E-30
   5.520000      2.6451897E-30
   5.530000      3.0575970E-30
   5.540000      3.4901469E-30
   5.550000      3.9426043E-30
   5.560000      4.4146339E-30
   5.570000      4.9057916E-30
   5.580000      5.4155220E-30
   5.590000      5.9431505E-30
   5.600000      6.4878787E-30
   5.610000      7.0487757E-30
   5.620000      7.6247747E-30
   5.630000      8.2146622E-30
   5.640000      8.8170728E-30
   5.650000      9.4304852E-30
   5.660000      1.0053212E-29
   5.670000      1.0683394E-29
   5.680000      1.1318997E-29
   5.690000      1.1957801E-29
   5.700000      1.2597399E-29
   5.710000      1.3235195E-29
   5.720000      1.3868396E-29
   5.730000      1.4494010E-29
   5.740000      1.5108844E-29
   5.750000      1.5709501E-29
   5.760000      1.6292380E-29
   5.770000      1.6853679E-29
   5.780000      1.7389382E-29
   5.790000      1.7895276E-29
   5.800000      1.8366938E-29
   5.810000      1.8799745E-29
   5.820000      1.9188877E-29
   5.830000      1.9529310E-29
   5.840000      1.9815838E-29
   5.850000      2.0043061E-29
   5.860000      2.0205407E-29
   5.870000      2.0297136E-29
   5.880000      2.0312354E-29
   5.890000      2.0245022E-29
   5.900000      2.0088967E-29
   5.910000      1.9837909E-29
   5.920000      1.9485468E-29
   5.930000      1.9025192E-29
   5.940000      1.8450570E-29
   5.950000      1.7755062E-29
   5.960000      1.6932110E-29
   5.970000      1.5975171E-29
   5.980000      1.4877749E-29
   5.990000      1.3633417E-29
   6.000000      1.2235850E-29
   6.010000      1.0678854E-29
   6.020000      8.9564078E-30
   6.030000      7.0626913E-30
   6.040000      4.9921372E-30
   6.050000      2.7394644E-30
   6.060000      2.9971669E-31
   6.070000     -2.3316858E-30
   6.080000     -5.1588904E-30
   6.090000     -8.1855777E-30
   6.100000     -1.1414892E-29
   6.110000     -1.4849409E-29
   6.120000     -1.8491073E-29
   6.130000     -2.2341141E-29
   6.140000     -2.6400121E-29
   6.150000     -3.0667726E-29
   6.160000     -3.5142799E-29
   6.170000     -3.9823266E-29
   6.180000     -4.4706076E-29
   6.190000     -4.9787137E-29
   6.200000     -5.5061266E-29
   6.210000     -6.0522114E-29
   6.220000     -6.6162103E-29
   6.230000     -7.1972375E-29
   6.240000     -7.7942740E-29
   6.250000     -8.4061594E-29
   6.260000     -9.0315865E-29
   6.270000     -9.6690970E-29
   6.280000     -1.0317076E-28
   6.290000     -1.0973745E-28
   6.300000     -1.1637161E-28
   6.310000     -1.2305203E-28
   6.320000     -1.2975582E-28
   6.330000     -1.3645824E-28
   6.340000     -1.4313274E-28
   6.350000     -1.4975095E-28
   6.360000     -1.5628256E-28
   6.370000     -1.6269540E-28
   6.380000     -1.6895545E-28
   6.390000     -1.7502673E-28
   6.400000     -1.8087136E-28
   6.410000     -1.8644960E-28
   6.420000     -1.9171979E-28
   6.430000     -1.9663846E-28
   6.440000     -2.0116025E-28
   6.450000     -2.0523812E-28
   6.460000     -2.0882329E-28
   6.470000     -2.1186529E-28
   6.480000     -2.1431216E-28
   6.490000     -2.1611043E-28
   6.500000     -2.1720537E-28
   6.510000     -2.1754089E-28
   6.520000     -2.1705991E-28
   6.530000     -2.1570427E-28
   6.540000     -2.1341511E-28
   6.550000     -2.1013287E-28
   6.560000     -2.0579756E-28
   6.570000     -2.0034893E-28
   6.580000     -1.9372675E-28
   6.590000     -1.8587098E-28
   6.600000     -1.7672201E-28
   6.610000     -1.6622090E-28
   6.620000     -1.5430976E-28
   6.630000     -1.4093196E-28
   6.640000     -1.2603245E-28
   6.650000     -1.0955814E-28
   6.660000     -9.1458152E-29
   6.670000     -7.1684262E-29
   6.680000     -5.0191161E-29
   6.690000     -2.6936875E-29
   6.700000     -1.8832407E-30
   6.710000      2.5003721E-29
   6.720000      5.3753517E-29
   6.730000      8.4390651E-29
   6.740000      1.1693414E-28
   6.750000      1.5139710E-28
   6.760000      1.8778634E-28
   6.770000      2.2610182E-28
   6.780000      2.6633615E-28
   6.790000      3.0847430E-28
   6.800000      3.5249292E-28
   6.810000      3.9836019E-28
   6.820000      4.4603488E-28
   6.830000      4.9546618E-28
   6.840000      5.4659336E-28
   6.850000      5.9934487E-28
   6.860000      6.5363823E-28
   6.870000      7.0937946E-28
   6.880000      7.6646268E-28
   6.890000      8.2476958E-28
   6.900000      8.8416921E-28
   6.910000      9.4451774E-28
   6.920000      1.0056574E-27
   6.930000      1.0674175E-27
   6.940000      1.1296128E-27
   6.950000      1.1920437E-27
   6.960000      1.2544965E-27
   6.970000      1.3167424E-27
   6.980000      1.3785383E-27
   6.990000      1.4396259E-27
   7.000000      1.4997319E-27
   7.010000      1.5585682E-27
   7.020000      1.6158321E-27
   7.030000      1.6712059E-27
   7.040000      1.7243569E-27
   7.050000      1.7749392E-27
   7.060000      1.8225921E-27