  -2.600000      0.0000000E+00
  -2.590000      0.0000000E+00
  -2.580000      0.0000000E+00
  -2.570000      0.0000000E+00
  -2.560000      0.0000000E+00
  -2.550000      0.0000000E+00
  -2.540000      0.0000000E+00
  -2.530000      0.0000000E+00
  -2.520000      0.0000000E+00
  -2.510000      0.0000000E+00
  -2.500000      0.0000000E+00
  -2.490000      0.0000000E+00
  -2.480000      0.0000000E+00
  -2.470000      0.0000000E+00
  -2.460000      0.0000000E+00
  -2.450000      0.0000000E+00
  -2.440000      0.0000000E+00
  -2.430000      0.0000000E+00
  -2.420000      0.0000000E+00
  -2.410000      0.0000000E+00
  -2.400000      0.0000000E+00
  -2.390000      0.0000000E+00
  -2.380000      0.0000000E+00
  -2.370000      0.0000000E+00
  -2.360000      0.0000000E+00
  -2.350000      0.0000000E+00
  -2.340000      0.0000000E+00
  -2.330000      0.0000000E+00
  -2.320000      0.0000000E+00
  -2.310000      0.0000000E+00
  -2.300000      0.0000000E+00
  -2.290000      0.0000000E+00
  -2.280000      0.0000000E+00
  -2.270000      0.0000000E+00
  -2.260000      0.0000000E+00
  -2.250000      0.0000000E+00
  -2.240000      0.0000000E+00
  -2.230000      0.0000000E+00
  -2.220000      0.0000000E+00
  -2.210000      0.0000000E+00
  -2.200000      0.0000000E+00
  -2.190000      0.0000000E+00
  -2.180000      0.0000000E+00
  -2.170000      0.0000000E+00
  -2.160000      0.0000000E+00
  -2.150000      0.0000000E+00
  -2.140000      0.0000000E+00
  -2.130000      0.0000000E+00
  -2.120000      0.0000000E+00
  -2.110000      0.0000000E+00
  -2.100000      0.0000000E+00
  -2.090000      0.0000000E+00
  -2.080000      0.0000000E+00
  -2.070000      0.0000000E+00
  -2.060000      0.0000000E+00
  -2.050000      0.0000000E+00
  -2.040000      0.0000000E+00
  -2.030000      0.0000000E+00
  -2.020000      0.0000000E+00
  -2.010000      0.0000000E+00
  -2.000000      0.0000000E+00
  -1.990000      0.0000000E+00
  -1.980000      0.0000000E+00
  -1.970000      0.0000000E+00
  -1.960000      0.0000000E+00
  -1.950000      0.0000000E+00
  -1.940000      0.0000000E+00
  -1.930000      0.0000000E+00
  -1.920000      0.0000000E+00
  -1.910000      0.0000000E+00
  -1.900000      0.0000000E+00
  -1.890000      0.0000000E+00
  -1.880000      0.0000000E+00
  -1.870000      0.0000000E+00
  -1.860000      0.0000000E+00
  -1.850000      0.0000000E+00
  -1.840000      0.0000000E+00
  -1.830000      0.0000000E+00
  -1.820000      0.0000000E+00
  -1.810000      0.0000000E+00
  -1.800000      0.0000000E+00
  -1.790000      0.0000000E+00
  -1.780000      0.0000000E+00
  -1.770000      0.0000000E+00
  -1.760000      0.0000000E+00
  -1.750000      0.0000000E+00
  -1.740000      0.0000000E+00
  -1.730000      0.0000000E+00
  -1.720000      0.0000000E+00
  -1.710000      0.0000000E+00
  -1.700000      0.0000000E+00
  -1.690000      0.0000000E+00
  -1.680000      0.0000000E+00
  -1.670000      0.0000000E+00
  -1.660000      0.0000000E+00
  -1.650000      0.0000000E+00
  -1.640000      0.0000000E+00
  -1.630000      0.0000000E+00
  -1.620000      0.0000000E+00
  -1.610000      0.0000000E+00
  -1.600000      0.0000000E+00
  -1.590000      0.0000000E+00
  -1.580000      0.0000000E+00
  -1.570000      0.0000000E+00
  -1.560000      0.0000000E+00
  -1.550000      0.0000000E+00
  -1.540000      0.0000000E+00
  -1.530000      0.0000000E+00
  -1.520000      0.0000000E+00
  -1.510000      0.0000000E+00
  -1.500000      0.0000000E+00
  -1.490000      0.0000000E+00
  -1.480000      0.0000000E+00
  -1.470000      0.0000000E+00
  -1.460000      0.0000000E+00
  -1.450000      0.0000000E+00
  -1.440000      0.0000000E+00
  -1.430000      0.0000000E+00
  -1.420000      0.0000000E+00
  -1.410000      0.0000000E+00
  -1.400000      0.0000000E+00
  -1.390000      0.0000000E+00
  -1.380000      0.0000000E+00
  -1.370000      0.0000000E+00
  -1.360000      0.0000000E+00
  -1.350000      0.0000000E+00
  -1.340000      0.0000000E+00
  -1.330000      0.0000000E+00
  -1.320000      0.0000000E+00
  -1.310000      0.0000000E+00
  -1.300000      0.0000000E+00
  -1.290000      0.0000000E+00
  -1.280000      0.0000000E+00
  -1.270000      0.0000000E+00
  -1.260000      0.0000000E+00
  -1.250000      0.0000000E+00
  -1.240000      0.0000000E+00
  -1.230000      0.0000000E+00
  -1.220000      0.0000000E+00
  -1.210000      0.0000000E+00
  -1.200000      0.0000000E+00
  -1.190000      0.0000000E+00
  -1.180000      0.0000000E+00
  -1.170000      0.0000000E+00
  -1.160000      0.0000000E+00
  -1.150000      0.0000000E+00
  -1.140000      0.0000000E+00
  -1.130000      0.0000000E+00
  -1.120000      0.0000000E+00
  -1.110000      0.0000000E+00
  -1.100000      0.0000000E+00
  -1.090000      0.0000000E+00
  -1.080000      0.0000000E+00
  -1.070000      0.0000000E+00
  -1.060000      0.0000000E+00
  -1.050000      0.0000000E+00
  -1.040000      0.0000000E+00
  -1.030000      0.0000000E+00
  -1.020000      0.0000000E+00
  -1.010000      0.0000000E+00
  -1.000000      0.0000000E+00
 -0.9900000      0.0000000E+00
 -0.9800000      0.0000000E+00
 -0.9700000      0.0000000E+00
 -0.9600000      0.0000000E+00
 -0.9500000      0.0000000E+00
 -0.9400000      0.0000000E+00
 -0.9300000      0.0000000E+00
 -0.9200000      0.0000000E+00
 -0.9100000      0.0000000E+00
 -0.9000000      0.0000000E+00
 -0.8900000      0.0000000E+00
 -0.8800000      0.0000000E+00
 -0.8700000      0.0000000E+00
 -0.8600000      0.0000000E+00
 -0.8500000      0.0000000E+00
 -0.8400000      0.0000000E+00
 -0.8300000      0.0000000E+00
 -0.8200000      0.0000000E+00
 -0.8100000      0.0000000E+00
 -0.8000000      0.0000000E+00
 -0.7900000      0.0000000E+00
 -0.7800000      0.0000000E+00
 -0.7700000      0.0000000E+00
 -0.7600000      0.0000000E+00
 -0.7500000      0.0000000E+00
 -0.7400000      0.0000000E+00
 -0.7300000      0.0000000E+00
 -0.7200000      0.0000000E+00
 -0.7100000      0.0000000E+00
 -0.7000000      0.0000000E+00
 -0.6900000      0.0000000E+00
 -0.6800000      0.0000000E+00
 -0.6700000      0.0000000E+00
 -0.6600000      0.0000000E+00
 -0.6500000      0.0000000E+00
 -0.6400000      0.0000000E+00
 -0.6300000      0.0000000E+00
 -0.6200000      0.0000000E+00
 -0.6100000      0.0000000E+00
 -0.6000000      0.0000000E+00
 -0.5900000      0.0000000E+00
 -0.5800000      0.0000000E+00
 -0.5700000      0.0000000E+00
 -0.5600000      0.0000000E+00
 -0.5500000      0.0000000E+00
 -0.5400000      0.0000000E+00
 -0.5300000      0.0000000E+00
 -0.5200000      0.0000000E+00
 -0.5100000      0.0000000E+00
 -0.5000000      0.0000000E+00
 -0.4900000      0.0000000E+00
 -0.4800000      0.0000000E+00
 -0.4700000      0.0000000E+00
 -0.4600000      0.0000000E+00
 -0.4500000      0.0000000E+00
 -0.4400000      0.0000000E+00
 -0.4300000      0.0000000E+00
 -0.4200000      0.0000000E+00
 -0.4100000      0.0000000E+00
 -0.4000000      0.0000000E+00
 -0.3900000      0.0000000E+00
 -0.3800000      0.0000000E+00
 -0.3700000      0.0000000E+00
 -0.3600000      0.0000000E+00
 -0.3500000      0.0000000E+00
 -0.3400000      0.0000000E+00
 -0.3300000      0.0000000E+00
 -0.3200000      0.0000000E+00
 -0.3100000      0.0000000E+00
 -0.3000000      0.0000000E+00
 -0.2900000      0.0000000E+00
 -0.2800000      0.0000000E+00
 -0.2700000      0.0000000E+00
 -0.2600000      0.0000000E+00
 -0.2500000      0.0000000E+00
 -0.2400000      0.0000000E+00
 -0.2300000      0.0000000E+00
 -0.2200000      0.0000000E+00
 -0.2100000      0.0000000E+00
 -0.2000000      0.0000000E+00
 -0.1900000      0.0000000E+00
 -0.1800000      0.0000000E+00
 -0.1700000      0.0000000E+00
 -0.1600000      0.0000000E+00
 -0.1500000      0.0000000E+00
 -0.1400000      0.0000000E+00
 -0.1300000      0.0000000E+00
 -0.1200000      0.0000000E+00
 -0.1100000      0.0000000E+00
 -0.1000000      0.0000000E+00
 -9.0000004E-02  0.0000000E+00
 -7.9999998E-02  0.0000000E+00
 -7.0000000E-02  0.0000000E+00
 -5.9999999E-02  0.0000000E+00
 -5.0000001E-02  0.0000000E+00
 -3.9999999E-02  0.0000000E+00
 -2.9999999E-02  0.0000000E+00
 -2.0000000E-02  0.0000000E+00
 -9.9999998E-03  0.0000000E+00
 -3.4694470E-17  0.0000000E+00
  9.9999998E-03  0.0000000E+00
  2.0000000E-02  0.0000000E+00
  2.9999999E-02  0.0000000E+00
  3.9999999E-02  0.0000000E+00
  5.0000001E-02  0.0000000E+00
  5.9999999E-02  0.0000000E+00
  7.0000000E-02  0.0000000E+00
  7.9999998E-02  0.0000000E+00
  9.0000004E-02  0.0000000E+00
  0.1000000      0.0000000E+00
  0.1100000      0.0000000E+00
  0.1200000      0.0000000E+00
  0.1300000      0.0000000E+00
  0.1400000      0.0000000E+00
  0.1500000      0.0000000E+00
  0.1600000      0.0000000E+00
  0.1700000      0.0000000E+00
  0.1800000      0.0000000E+00
  0.1900000      0.0000000E+00
  0.2000000      0.0000000E+00
  0.2100000      0.0000000E+00
  0.2200000      0.0000000E+00
  0.2300000      0.0000000E+00
  0.2400000      0.0000000E+00
  0.2500000      0.0000000E+00
  0.2600000      0.0000000E+00
  0.2700000      0.0000000E+00
  0.2800000      0.0000000E+00
  0.2900000      0.0000000E+00
  0.3000000      0.0000000E+00
  0.3100000      0.0000000E+00
  0.3200000      0.0000000E+00
  0.3300000      0.0000000E+00
  0.3400000      0.0000000E+00
  0.3500000      0.0000000E+00
  0.3600000      0.0000000E+00
  0.3700000      0.0000000E+00
  0.3800000      0.0000000E+00
  0.3900000      0.0000000E+00
  0.4000000      0.0000000E+00
  0.4100000      0.0000000E+00
  0.4200000      0.0000000E+00
  0.4300000      0.0000000E+00
  0.4400000      0.0000000E+00
  0.4500000      0.0000000E+00
  0.4600000      0.0000000E+00
  0.4700000      0.0000000E+00
  0.4800000      0.0000000E+00
  0.4900000      0.0000000E+00
  0.5000000      0.0000000E+00
  0.5100000      0.0000000E+00
  0.5200000      0.0000000E+00
  0.5300000      0.0000000E+00
  0.5400000      0.0000000E+00
  0.5500000      0.0000000E+00
  0.5600000      0.0000000E+00
  0.5700000      0.0000000E+00
  0.5800000      0.0000000E+00
  0.5900000      0.0000000E+00
  0.6000000      0.0000000E+00
  0.6100000      0.0000000E+00
  0.6200000      0.0000000E+00
  0.6300000      0.0000000E+00
  0.6400000      0.0000000E+00
  0.6500000      0.0000000E+00
  0.6600000      0.0000000E+00
  0.6700000      0.0000000E+00
  0.6800000      0.0000000E+00
  0.6900000      0.0000000E+00
  0.7000000      0.0000000E+00
  0.7100000      0.0000000E+00
  0.7200000      0.0000000E+00
  0.7300000      0.0000000E+00
  0.7400000      0.0000000E+00
  0.7500000      0.0000000E+00
  0.7600000      0.0000000E+00
  0.7700000      0.0000000E+00
  0.7800000      0.0000000E+00
  0.7900000      0.0000000E+00
  0.8000000      0.0000000E+00
  0.8100000      0.0000000E+00
  0.8200000      0.0000000E+00
  0.8300000      0.0000000E+00
  0.8400000      0.0000000E+00
  0.8500000      0.0000000E+00
  0.8600000      0.0000000E+00
  0.8700000      0.0000000E+00
  0.8800000      0.0000000E+00
  0.8900000      0.0000000E+00
  0.9000000      0.0000000E+00
  0.9100000      0.0000000E+00
  0.9200000      0.0000000E+00
  0.9300000      0.0000000E+00
  0.9400000      0.0000000E+00
  0.9500000      0.0000000E+00
  0.9600000      0.0000000E+00
  0.9700000      0.0000000E+00
  0.9800000      0.0000000E+00
  0.9900000      0.0000000E+00
   1.000000      0.0000000E+00
   1.010000      0.0000000E+00
   1.020000      0.0000000E+00
   1.030000      0.0000000E+00
   1.040000      0.0000000E+00
   1.050000      0.0000000E+00
   1.060000      0.0000000E+00
   1.070000      0.0000000E+00
   1.080000      0.0000000E+00
   1.090000      0.0000000E+00
   1.100000      0.0000000E+00
   1.110000      0.0000000E+00
   1.120000      0.0000000E+00
   1.130000      0.0000000E+00
   1.140000      0.0000000E+00
   1.150000      0.0000000E+00
   1.160000      0.0000000E+00
   1.170000      0.0000000E+00
   1.180000      0.0000000E+00
   1.190000      0.0000000E+00
   1.200000      0.0000000E+00
   1.210000      0.0000000E+00
   1.220000      0.0000000E+00
   1.230000      0.0000000E+00
   1.240000      0.0000000E+00
   1.250000      0.0000000E+00
   1.260000      0.0000000E+00
   1.270000      0.0000000E+00
   1.280000      0.0000000E+00
   1.290000      0.0000000E+00
   1.300000      0.0000000E+00
   1.310000      0.0000000E+00
   1.320000      0.0000000E+00
   1.330000      0.0000000E+00
   1.340000      0.0000000E+00
   1.350000      0.0000000E+00
   1.360000      0.0000000E+00
   1.370000      0.0000000E+00
   1.380000      0.0000000E+00
   1.390000      0.0000000E+00
   1.400000      0.0000000E+00
   1.410000      0.0000000E+00
   1.420000      0.0000000E+00
   1.430000      0.0000000E+00
   1.440000      0.0000000E+00
   1.450000      0.0000000E+00
   1.460000      0.0000000E+00
   1.470000      0.0000000E+00
   1.480000      0.0000000E+00
   1.490000      0.0000000E+00
   1.500000      0.0000000E+00
   1.510000      0.0000000E+00
   1.520000      0.0000000E+00
   1.530000      0.0000000E+00
   1.540000      0.0000000E+00
   1.550000      0.0000000E+00
   1.560000      0.0000000E+00
   1.570000      0.0000000E+00
   1.580000      0.0000000E+00
   1.590000      0.0000000E+00
   1.600000      0.0000000E+00
   1.610000      0.0000000E+00
   1.620000      0.0000000E+00
   1.630000      0.0000000E+00
   1.640000      0.0000000E+00
   1.650000      0.0000000E+00
   1.660000      0.0000000E+00
   1.670000      0.0000000E+00
   1.680000      0.0000000E+00
   1.690000      0.0000000E+00
   1.700000      0.0000000E+00
   1.710000      0.0000000E+00
   1.720000      0.0000000E+00
   1.730000      0.0000000E+00
   1.740000      0.0000000E+00
   1.750000      0.0000000E+00
   1.760000      0.0000000E+00
   1.770000      0.0000000E+00
   1.780000      0.0000000E+00
   1.790000      0.0000000E+00
   1.800000      0.0000000E+00
   1.810000      0.0000000E+00
   1.820000      0.0000000E+00
   1.830000      0.0000000E+00
   1.840000      0.0000000E+00
   1.850000      0.0000000E+00
   1.860000      0.0000000E+00
   1.870000      0.0000000E+00
   1.880000      0.0000000E+00
   1.890000      0.0000000E+00
   1.900000      0.0000000E+00
   1.910000      0.0000000E+00
   1.920000      0.0000000E+00
   1.930000      0.0000000E+00
   1.940000      0.0000000E+00
   1.950000      0.0000000E+00
   1.960000      0.0000000E+00
   1.970000      0.0000000E+00
   1.980000      0.0000000E+00
   1.990000      0.0000000E+00
   2.000000      0.0000000E+00
   2.010000      0.0000000E+00
   2.020000      0.0000000E+00
   2.030000      0.0000000E+00
   2.040000      0.0000000E+00
   2.050000      0.0000000E+00
   2.060000      0.0000000E+00
   2.070000      0.0000000E+00
   2.080000      0.0000000E+00
   2.090000      0.0000000E+00
   2.100000      0.0000000E+00
   2.110000      0.0000000E+00
   2.120000      0.0000000E+00
   2.130000      0.0000000E+00
   2.140000      0.0000000E+00
   2.150000      0.0000000E+00
   2.160000      0.0000000E+00
   2.170000      0.0000000E+00
   2.180000      0.0000000E+00
   2.190000      0.0000000E+00
   2.200000      0.0000000E+00
   2.210000      0.0000000E+00
   2.220000      0.0000000E+00
   2.230000      0.0000000E+00
   2.240000      0.0000000E+00
   2.250000      0.0000000E+00
   2.260000      0.0000000E+00
   2.270000      0.0000000E+00
   2.280000      0.0000000E+00
   2.290000      0.0000000E+00
   2.300000      0.0000000E+00
   2.310000      0.0000000E+00
   2.320000      0.0000000E+00
   2.330000      0.0000000E+00
   2.340000      0.0000000E+00
   2.350000      0.0000000E+00
   2.360000      0.0000000E+00
   2.370000      0.0000000E+00
   2.380000      0.0000000E+00
   2.390000      0.0000000E+00
   2.400000      0.0000000E+00
   2.410000      0.0000000E+00
   2.420000      0.0000000E+00
   2.430000      0.0000000E+00
   2.440000      0.0000000E+00
   2.450000      0.0000000E+00
   2.460000      0.0000000E+00
   2.470000      0.0000000E+00
   2.480000      0.0000000E+00
   2.490000      0.0000000E+00
   2.500000      0.0000000E+00
   2.510000      0.0000000E+00
   2.520000      0.0000000E+00
   2.530000      0.0000000E+00
   2.540000      0.0000000E+00
   2.550000      0.0000000E+00
   2.560000      0.0000000E+00
   2.570000      0.0000000E+00
   2.580000      0.0000000E+00
   2.590000      0.0000000E+00
   2.600000      0.0000000E+00
   2.610000      0.0000000E+00
   2.620000      0.0000000E+00
   2.630000      0.0000000E+00
   2.640000      0.0000000E+00
   2.650000      0.0000000E+00
   2.660000      0.0000000E+00
   2.670000      0.0000000E+00
   2.680000      0.0000000E+00
   2.690000      0.0000000E+00
   2.700000      0.0000000E+00
   2.710000      0.0000000E+00
   2.720000      0.0000000E+00
   2.730000      0.0000000E+00
   2.740000      0.0000000E+00
   2.750000      0.0000000E+00
   2.760000      0.0000000E+00
   2.770000      0.0000000E+00
   2.780000      0.0000000E+00
   2.790000      0.0000000E+00
   2.800000      0.0000000E+00
   2.810000      0.0000000E+00
   2.820000      0.0000000E+00
   2.830000      0.0000000E+00
   2.840000      0.0000000E+00
   2.850000      0.0000000E+00
   2.860000      0.0000000E+00
   2.870000      0.0000000E+00
   2.880000      0.0000000E+00
   2.890000      0.0000000E+00
   2.900000      0.0000000E+00
   2.910000      0.0000000E+00
   2.920000      0.0000000E+00
   2.930000      0.0000000E+00
   2.940000      0.0000000E+00
   2.950000      0.0000000E+00
   2.960000      0.0000000E+00
   2.970000      0.0000000E+00
   2.980000      0.0000000E+00
   2.990000      0.0000000E+00
   3.000000      0.0000000E+00
   3.010000      0.0000000E+00
   3.020000      0.0000000E+00
   3.030000      0.0000000E+00
   3.040000      0.0000000E+00
   3.050000      0.0000000E+00
   3.060000      0.0000000E+00
   3.070000      0.0000000E+00
   3.080000      0.0000000E+00
   3.090000      0.0000000E+00
   3.100000      0.0000000E+00
   3.110000      0.0000000E+00
   3.120000      0.0000000E+00
   3.130000      0.0000000E+00
   3.140000      0.0000000E+00
   3.150000      0.0000000E+00
   3.160000      0.0000000E+00
   3.170000      0.0000000E+00
   3.180000      0.0000000E+00
   3.190000      1.1944386E-38
   3.200000      1.5131092E-38
   3.210000      1.8150831E-38
   3.220000      2.0856373E-38
   3.230000      2.2988217E-38
   3.240000      2.3639796E-38
   3.250000      2.3046373E-38
   3.260000      2.3488499E-38
   3.270000      2.5313557E-38
   3.280000      2.7274316E-38
   3.290000      2.9229242E-38
   3.300000      3.1510189E-38
   3.310000      3.4066855E-38
   3.320000      3.6778129E-38
   3.330000      3.9110453E-38
   3.340000      4.0930793E-38
   3.350000      4.3169210E-38
   3.360000      4.4985660E-38
   3.370000      4.5945107E-38
   3.380000      4.6925416E-38
   3.390000      4.7968083E-38
   3.400000      4.9095316E-38
   3.410000      5.0199522E-38
   3.420000      5.1574896E-38
   3.430000      5.0780304E-38
   3.440000      4.7366545E-38
   3.450000      4.3665747E-38
   3.460000      4.0471484E-38
   3.470000      3.7836578E-38
   3.480000      3.3119322E-38
   3.490000      2.6056570E-38
   3.500000      2.1041267E-38
   3.510000      1.7344027E-38
   3.520000      0.0000000E+00
   3.530000      0.0000000E+00
   3.540000      0.0000000E+00
   3.550000     -1.6308740E-38
   3.560000     -2.9925662E-38
   3.570000     -4.4882278E-38
   3.580000     -5.9995047E-38
   3.590000     -7.8873373E-38
   3.600000     -1.0152656E-37
   3.610000     -1.2580672E-37
   3.620000     -1.4887363E-37
   3.630000     -1.6140234E-37
   3.640000     -1.6341156E-37
   3.650000     -1.5910869E-37
   3.660000     -1.5112380E-37
   3.670000     -1.4343187E-37
   3.680000     -1.3885376E-37
   3.690000     -1.4064278E-37
   3.700000     -1.3728792E-37
   3.710000     -1.2780404E-37
   3.720000     -1.2232653E-37
   3.730000     -1.6130423E-37
   3.740000     -2.4835549E-37
   3.750000     -3.4359094E-37
   3.760000     -4.2854783E-37
   3.770000     -4.9200966E-37
   3.780000     -5.3742809E-37
   3.790000     -5.2171001E-37
   3.800000     -4.5718347E-37
   3.810000     -3.9273629E-37
   3.820000     -3.3929173E-37
   3.830000     -3.1795381E-37
   3.840000     -3.2633461E-37
   3.850000     -3.3984893E-37
   3.860000     -3.3904163E-37
   3.870000     -3.2041425E-37
   3.880000     -2.4866501E-37
   3.890000     -1.4160636E-37
   3.900000     -4.0310349E-38
   3.910000      8.5499514E-38
   3.920000      2.3251732E-37
   3.930000      3.7207584E-37
   3.940000      4.1312014E-37
   3.950000      3.4908564E-37
   3.960000      2.6232401E-37
   3.970000      1.4882312E-37
   3.980000      0.0000000E+00
   3.990000     -1.8705163E-37
   4.000000     -3.6483505E-37
   4.010000     -5.2126666E-37
   4.020000     -4.9542286E-37
   4.030000     -2.0798184E-37
   4.040000      2.2305571E-37
   4.050000      7.4973293E-37
   4.060000      1.3228335E-36
   4.070000      1.9489422E-36
   4.080000      2.6079909E-36
   4.090000      3.1181577E-36
   4.100000      3.5733547E-36
   4.110000      4.0921409E-36
   4.120000      4.5931584E-36
   4.130000      4.8521026E-36
   4.140000      4.7609681E-36
   4.150000      4.4778364E-36
   4.160000      4.1056989E-36
   4.170000      3.6893121E-36
   4.180000      3.3084355E-36
   4.190000      3.0432737E-36
   4.200000      3.0015286E-36
   4.210000      3.1468724E-36
   4.220000      3.3477852E-36
   4.230000      3.6057342E-36
   4.240000      3.8808375E-36
   4.250000      4.2395878E-36
   4.260000      5.0375486E-36
   4.270000      6.1981649E-36
   4.280000      7.2091496E-36
   4.290000      8.0750643E-36
   4.300000      8.9715309E-36
   4.310000      9.5937257E-36
   4.320000      9.6893515E-36
   4.330000      9.0961301E-36
   4.340000      7.6957550E-36
   4.350000      5.8549735E-36
   4.360000      3.9965552E-36
   4.370000      2.2889572E-36
   4.380000      7.6086964E-37
   4.390000     -5.9657024E-37
   4.400000     -1.7854462E-36
   4.410000     -2.7510654E-36
   4.420000     -3.4281993E-36
   4.430000     -3.7650182E-36
   4.440000     -3.9185969E-36
   4.450000     -4.0538401E-36
   4.460000     -4.2049956E-36
   4.470000     -4.6700258E-36
   4.480000     -5.6881253E-36
   4.490000     -7.2211714E-36
   4.500000     -9.2805724E-36
   4.510000     -1.1807818E-35
   4.520000     -1.4982545E-35
   4.530000     -1.8804638E-35
   4.540000     -2.2668345E-35
   4.550000     -2.6193079E-35
   4.560000     -2.9552752E-35
   4.570000     -3.2692911E-35
   4.580000     -3.5652660E-35
   4.590000     -3.7834465E-35
   4.600000     -3.8574918E-35
   4.610000     -3.8632223E-35
   4.620000     -3.8458045E-35
   4.630000     -3.8507680E-35
   4.640000     -3.8454696E-35
   4.650000     -3.8532751E-35
   4.660000     -4.0946216E-35
   4.670000     -4.5854574E-35
   4.680000     -5.1574820E-35
   4.690000     -5.7490622E-35
   4.700000     -6.4086965E-35
   4.710000     -7.1023661E-35
   4.720000     -7.4871793E-35
   4.730000     -7.4178957E-35
   4.740000     -7.1131666E-35
   4.750000     -6.7010973E-35
   4.760000     -6.1918000E-35
   4.770000     -5.0191123E-35
   4.780000     -3.1131346E-35
   4.790000     -1.0596957E-35
   4.800000      1.0197025E-35
   4.810000      2.4397362E-35
   4.820000      2.9716744E-35
   4.830000      2.6161643E-35
   4.840000      1.3768460E-35
   4.850000     -2.6267201E-36
   4.860000     -2.1701280E-35
   4.870000     -4.0199017E-35
   4.880000     -5.6880639E-35
   4.890000     -7.2702873E-35
   4.900000     -8.0774140E-35
   4.910000     -7.8894285E-35
   4.920000     -7.0254442E-35
   4.930000     -4.0175906E-35
   4.940000      1.1950811E-35
   4.950000      7.2744848E-35
   4.960000      1.3969674E-34
   4.970000      2.0691049E-34
   4.980000      2.7002575E-34
   4.990000      3.2552352E-34
   5.000000      3.6175138E-34
   5.010000      3.7458443E-34
   5.020000      3.6907813E-34
   5.030000      3.4438876E-34
   5.040000      3.0549278E-34
   5.050000      2.6286625E-34
   5.060000      2.2858126E-34
   5.070000      2.0431437E-34
   5.080000      1.8756181E-34
   5.090000      1.9242409E-34
   5.100000      2.2679995E-34
   5.110000      2.8282901E-34
   5.120000      3.4860192E-34
   5.130000      4.2052736E-34
   5.140000      4.9866821E-34
   5.150000      5.7132947E-34
   5.160000      6.2481056E-34
   5.170000      6.4526287E-34
   5.180000      6.4112729E-34
   5.190000      6.2224812E-34
   5.200000      5.8373975E-34
   5.210000      5.2987864E-34
   5.220000      4.7668629E-34
   5.230000      4.3739754E-34
   5.240000      4.0087865E-34
   5.250000      3.6885596E-34
   5.260000      3.5056226E-34
   5.270000      3.4630472E-34
   5.280000      3.5121666E-34
   5.290000      3.6132563E-34
   5.300000      3.7264796E-34
   5.310000      3.7763681E-34
   5.320000      3.6886822E-34
   5.330000      3.3999220E-34
   5.340000      2.8954118E-34
   5.350000      2.1389516E-34
   5.360000      1.1045740E-34
   5.370000     -1.7208076E-35
   5.380000     -1.6252162E-34
   5.390000     -3.2080063E-34
   5.400000     -4.8437833E-34
   5.410000     -6.4503200E-34
   5.420000     -7.9858302E-34
   5.430000     -9.4248070E-34
   5.440000     -1.0727443E-33
   5.450000     -1.1902931E-33
   5.460000     -1.2994522E-33
   5.470000     -1.4045925E-33
   5.480000     -1.5107869E-33
   5.490000     -1.6240478E-33
   5.500000     -1.7499717E-33
   5.510000     -1.8920169E-33
   5.520000     -2.0508290E-33
   5.530000     -2.2297638E-33
   5.540000     -2.4286422E-33
   5.550000     -2.6386724E-33
   5.560000     -2.8548765E-33
   5.570000     -3.0700805E-33
   5.580000     -3.2793482E-33
   5.590000     -3.4786254E-33
   5.600000     -3.6621439E-33
   5.610000     -3.8288713E-33
   5.620000     -3.9786414E-33
   5.630000     -4.1129192E-33
   5.640000     -4.2374834E-33
   5.650000     -4.3542548E-33
   5.660000     -4.4642748E-33
   5.670000     -4.5718730E-33
   5.680000     -4.6802543E-33
   5.690000     -4.7914704E-33
   5.700000     -4.9066692E-33
   5.710000     -5.0187276E-33
   5.720000     -5.1171521E-33
   5.730000     -5.1995175E-33
   5.740000     -5.2594064E-33
   5.750000     -5.2872087E-33
   5.760000     -5.2750812E-33
   5.770000     -5.2149764E-33
   5.780000     -5.1044215E-33
   5.790000     -4.9433446E-33
   5.800000     -4.7290692E-33
   5.810000     -4.4623948E-33
   5.820000     -4.1467227E-33
   5.830000     -3.7858452E-33
   5.840000     -3.3830522E-33
   5.850000     -2.9409225E-33
   5.860000     -2.4608019E-33
   5.870000     -1.9443749E-33
   5.880000     -1.3908483E-33
   5.890000     -7.9502907E-34
   5.900000     -1.5144806E-34
   5.910000      5.4603053E-34
   5.920000      1.3039806E-33
   5.930000      2.1280099E-33
   5.940000      3.0244601E-33
   5.950000      3.9971984E-33
   5.960000      5.0468605E-33
   5.970000      6.1733966E-33
   5.980000      7.3744476E-33
   5.990000      8.6460335E-33
   6.000000      9.9832068E-33
   6.010000      1.1380605E-32
   6.020000      1.2833083E-32
   6.030000      1.4336702E-32
   6.040000      1.5888696E-32
   6.050000      1.7487356E-32
   6.060000      1.9132471E-32
   6.070000      2.0825029E-32
   6.080000      2.2566287E-32
   6.090000      2.4357463E-32
   6.100000      2.6198954E-32
   6.110000      2.8089604E-32
   6.120000      3.0026137E-32
   6.130000      3.2002939E-32
   6.140000      3.4012003E-32
   6.150000      3.6042485E-32
   6.160000      3.8081812E-32
   6.170000      4.0115761E-32
   6.180000      4.2129086E-32
   6.190000      4.4105965E-32
   6.200000      4.6030648E-32
   6.210000      4.7888550E-32
   6.220000      4.9666329E-32
   6.230000      5.1351671E-32
   6.240000      5.2932887E-32
   6.250000      5.4398922E-32
   6.260000      5.5738745E-32
   6.270000      5.6940729E-32
   6.280000      5.7991944E-32
   6.290000      5.8877832E-32
   6.300000      5.9581301E-32
   6.310000      6.0083090E-32
   6.320000      6.0362046E-32
   6.330000      6.0394743E-32
   6.340000      6.0156341E-32
   6.350000      5.9621068E-32
   6.360000      5.8762898E-32
   6.370000      5.7556194E-32
   6.380000      5.5976189E-32
   6.390000      5.3999348E-32
   6.400000      5.1603538E-32
   6.410000      4.8768002E-32
   6.420000      4.5473106E-32
   6.430000      4.1699969E-32
   6.440000      3.7430006E-32
   6.450000      3.2644442E-32
   6.460000      2.7323961E-32
   6.470000      2.1448453E-32
   6.480000      1.4996923E-32
   6.490000      7.9476620E-33
   6.500000      2.7861457E-34
   6.510000     -8.0321132E-33
   6.520000     -1.7005549E-32
   6.530000     -2.6661064E-32
   6.540000     -3.7015659E-32
   6.550000     -4.8083297E-32
   6.560000     -5.9874351E-32
   6.570000     -7.2395271E-32
   6.580000     -8.5648399E-32
   6.590000     -9.9632056E-32
   6.600000     -1.1434068E-31
   6.610000     -1.2976509E-31
   6.620000     -1.4589286E-31
   6.630000     -1.6270851E-31
   6.640000     -1.8019376E-31
   6.650000     -1.9832750E-31
   6.660000     -2.1708567E-31
   6.670000     -2.3644084E-31
   6.680000     -2.5636171E-31
   6.690000     -2.7681249E-31
   6.700000     -2.9775201E-31
   6.710000     -3.1913306E-31
   6.720000     -3.4090173E-31
   6.730000     -3.6299691E-31
   6.740000     -3.8534974E-31
   6.750000     -4.0788361E-31
   6.760000     -4.3051404E-31
   6.770000     -4.5314893E-31
   6.780000     -4.7568880E-31
   6.790000     -4.9802719E-31
   6.800000     -5.2005088E-31
   6.810000     -5.4164034E-31
   6.820000     -5.6266998E-31
   6.830000     -5.8300796E-31
   6.840000     -6.0251618E-31
   6.850000     -6.2105001E-31
   6.860000     -6.3845810E-31
   6.870000     -6.5458174E-31
   6.880000     -6.6925464E-31
   6.890000     -6.8230262E-31
   6.900000     -6.9354327E-31
   6.910000     -7.0278608E-31
   6.920000     -7.0983256E-31
   6.930000     -7.1447694E-31
   6.940000     -7.1650636E-31
   6.950000     -7.1570180E-31
   6.960000     -7.1183904E-31
   6.970000     -7.0468968E-31
   6.980000     -6.9402207E-31
   6.990000     -6.7960195E-31
   7.000000     -6.6119352E-31
   7.010000     -6.3856003E-31
   7.020000     -6.1146465E-31
   7.030000     -5.7967092E-31
   7.040000     -5.4294326E-31
   7.050000     -5.0104770E-31
   7.060000     -4.5375229E-31