  -2.600000      0.0000000E+00
  -2.590000      0.0000000E+00
  -2.580000      0.0000000E+00
  -2.570000      0.0000000E+00
  -2.560000      0.0000000E+00
  -2.550000      0.0000000E+00
  -2.540000      0.0000000E+00
  -2.530000      0.0000000E+00
  -2.520000      0.0000000E+00
  -2.510000      0.0000000E+00
  -2.500000      0.0000000E+00
  -2.490000      0.0000000E+00
  -2.480000      0.0000000E+00
  -2.470000      0.0000000E+00
  -2.460000      0.0000000E+00
  -2.450000      0.0000000E+00
  -2.440000      0.0000000E+00
  -2.430000      0.0000000E+00
  -2.420000      0.0000000E+00
  -2.410000      0.0000000E+00
  -2.400000      0.0000000E+00
  -2.390000      0.0000000E+00
  -2.380000      0.0000000E+00
  -2.370000      0.0000000E+00
  -2.360000      0.0000000E+00
  -2.350000      0.0000000E+00
  -2.340000      0.0000000E+00
  -2.330000      0.0000000E+00
  -2.320000      0.0000000E+00
  -2.310000      0.0000000E+00
  -2.300000      0.0000000E+00
  -2.290000      0.0000000E+00
  -2.280000      0.0000000E+00
  -2.270000      0.0000000E+00
  -2.260000      0.0000000E+00
  -2.250000      0.0000000E+00
  -2.240000      0.0000000E+00
  -2.230000      0.0000000E+00
  -2.220000      0.0000000E+00
  -2.210000      0.0000000E+00
  -2.200000      0.0000000E+00
  -2.190000      0.0000000E+00
  -2.180000      0.0000000E+00
  -2.170000      0.0000000E+00
  -2.160000      0.0000000E+00
  -2.150000      0.0000000E+00
  -2.140000      0.0000000E+00
  -2.130000      0.0000000E+00
  -2.120000      0.0000000E+00
  -2.110000      0.0000000E+00
  -2.100000      0.0000000E+00
  -2.090000      0.0000000E+00
  -2.080000      0.0000000E+00
  -2.070000      0.0000000E+00
  -2.060000      0.0000000E+00
  -2.050000      0.0000000E+00
  -2.040000      0.0000000E+00
  -2.030000      0.0000000E+00
  -2.020000      0.0000000E+00
  -2.010000      0.0000000E+00
  -2.000000      0.0000000E+00
  -1.990000      0.0000000E+00
  -1.980000      0.0000000E+00
  -1.970000      0.0000000E+00
  -1.960000      0.0000000E+00
  -1.950000      0.0000000E+00
  -1.940000      0.0000000E+00
  -1.930000      0.0000000E+00
  -1.920000      0.0000000E+00
  -1.910000      0.0000000E+00
  -1.900000      0.0000000E+00
  -1.890000      0.0000000E+00
  -1.880000      0.0000000E+00
  -1.870000      0.0000000E+00
  -1.860000      0.0000000E+00
  -1.850000      0.0000000E+00
  -1.840000      0.0000000E+00
  -1.830000      0.0000000E+00
  -1.820000      0.0000000E+00
  -1.810000      0.0000000E+00
  -1.800000      0.0000000E+00
  -1.790000      0.0000000E+00
  -1.780000      0.0000000E+00
  -1.770000      0.0000000E+00
  -1.760000      0.0000000E+00
  -1.750000      0.0000000E+00
  -1.740000      0.0000000E+00
  -1.730000      0.0000000E+00
  -1.720000      0.0000000E+00
  -1.710000      0.0000000E+00
  -1.700000      0.0000000E+00
  -1.690000      0.0000000E+00
  -1.680000      0.0000000E+00
  -1.670000      0.0000000E+00
  -1.660000      0.0000000E+00
  -1.650000      0.0000000E+00
  -1.640000      0.0000000E+00
  -1.630000      0.0000000E+00
  -1.620000      0.0000000E+00
  -1.610000      0.0000000E+00
  -1.600000      0.0000000E+00
  -1.590000      0.0000000E+00
  -1.580000      0.0000000E+00
  -1.570000      0.0000000E+00
  -1.560000      0.0000000E+00
  -1.550000      0.0000000E+00
  -1.540000      0.0000000E+00
  -1.530000      0.0000000E+00
  -1.520000      0.0000000E+00
  -1.510000      0.0000000E+00
  -1.500000      0.0000000E+00
  -1.490000      0.0000000E+00
  -1.480000      0.0000000E+00
  -1.470000      0.0000000E+00
  -1.460000      0.0000000E+00
  -1.450000      0.0000000E+00
  -1.440000      0.0000000E+00
  -1.430000      0.0000000E+00
  -1.420000      0.0000000E+00
  -1.410000      0.0000000E+00
  -1.400000      0.0000000E+00
  -1.390000      0.0000000E+00
  -1.380000      0.0000000E+00
  -1.370000      0.0000000E+00
  -1.360000      0.0000000E+00
  -1.350000      0.0000000E+00
  -1.340000      0.0000000E+00
  -1.330000      0.0000000E+00
  -1.320000      0.0000000E+00
  -1.310000      0.0000000E+00
  -1.300000      0.0000000E+00
  -1.290000      0.0000000E+00
  -1.280000      0.0000000E+00
  -1.270000      0.0000000E+00
  -1.260000      0.0000000E+00
  -1.250000      0.0000000E+00
  -1.240000      0.0000000E+00
  -1.230000      0.0000000E+00
  -1.220000      0.0000000E+00
  -1.210000      0.0000000E+00
  -1.200000      0.0000000E+00
  -1.190000      0.0000000E+00
  -1.180000      0.0000000E+00
  -1.170000      0.0000000E+00
  -1.160000      0.0000000E+00
  -1.150000      0.0000000E+00
  -1.140000      0.0000000E+00
  -1.130000      0.0000000E+00
  -1.120000      0.0000000E+00
  -1.110000      0.0000000E+00
  -1.100000      0.0000000E+00
  -1.090000      0.0000000E+00
  -1.080000      0.0000000E+00
  -1.070000      0.0000000E+00
  -1.060000      0.0000000E+00
  -1.050000      0.0000000E+00
  -1.040000      0.0000000E+00
  -1.030000      0.0000000E+00
  -1.020000      0.0000000E+00
  -1.010000      0.0000000E+00
  -1.000000      0.0000000E+00
 -0.9900000      0.0000000E+00
 -0.9800000      0.0000000E+00
 -0.9700000      0.0000000E+00
 -0.9600000      0.0000000E+00
 -0.9500000      0.0000000E+00
 -0.9400000      0.0000000E+00
 -0.9300000      0.0000000E+00
 -0.9200000      0.0000000E+00
 -0.9100000      0.0000000E+00
 -0.9000000      0.0000000E+00
 -0.8900000      0.0000000E+00
 -0.8800000      0.0000000E+00
 -0.8700000      0.0000000E+00
 -0.8600000      0.0000000E+00
 -0.8500000      0.0000000E+00
 -0.8400000      0.0000000E+00
 -0.8300000      0.0000000E+00
 -0.8200000      0.0000000E+00
 -0.8100000      0.0000000E+00
 -0.8000000      0.0000000E+00
 -0.7900000      0.0000000E+00
 -0.7800000      0.0000000E+00
 -0.7700000      0.0000000E+00
 -0.7600000      0.0000000E+00
 -0.7500000      0.0000000E+00
 -0.7400000      0.0000000E+00
 -0.7300000      0.0000000E+00
 -0.7200000      0.0000000E+00
 -0.7100000      0.0000000E+00
 -0.7000000      0.0000000E+00
 -0.6900000      0.0000000E+00
 -0.6800000      0.0000000E+00
 -0.6700000      0.0000000E+00
 -0.6600000      0.0000000E+00
 -0.6500000      0.0000000E+00
 -0.6400000      0.0000000E+00
 -0.6300000      0.0000000E+00
 -0.6200000      0.0000000E+00
 -0.6100000      0.0000000E+00
 -0.6000000      0.0000000E+00
 -0.5900000      0.0000000E+00
 -0.5800000      0.0000000E+00
 -0.5700000      0.0000000E+00
 -0.5600000      0.0000000E+00
 -0.5500000      0.0000000E+00
 -0.5400000      1.3726641E-38
 -0.5300000      1.9767350E-38
 -0.5200000      2.6651794E-38
 -0.5100000      3.3892236E-38
 -0.5000000      3.8774102E-38
 -0.4900000      3.9682763E-38
 -0.4800000      3.6275383E-38
 -0.4700000      2.9297025E-38
 -0.4600000      1.7336879E-38
 -0.4500000      0.0000000E+00
 -0.4400000     -3.1159693E-38
 -0.4300000     -6.9353086E-38
 -0.4200000     -1.1646214E-37
 -0.4100000     -1.6949200E-37
 -0.4000000     -2.1231308E-37
 -0.3900000     -2.3804292E-37
 -0.3800000     -2.4162944E-37
 -0.3700000     -1.9473269E-37
 -0.3600000     -1.1570424E-37
 -0.3500000     -6.1552730E-38
 -0.3400000     -5.8462200E-38
 -0.3300000     -9.1879777E-38
 -0.3200000     -2.4121046E-37
 -0.3100000     -5.3909167E-37
 -0.3000000     -8.5693513E-37
 -0.2900000     -1.1257537E-36
 -0.2800000     -1.3248145E-36
 -0.2700000     -1.3084041E-36
 -0.2600000     -1.0006519E-36
 -0.2500000     -3.3588956E-37
 -0.2400000      8.5139289E-37
 -0.2300000      2.4587632E-36
 -0.2200000      4.3861469E-36
 -0.2100000      6.6181236E-36
 -0.2000000      9.1135322E-36
 -0.1900000      1.1635559E-35
 -0.1800000      1.3860651E-35
 -0.1700000      1.5516550E-35
 -0.1600000      1.6427495E-35
 -0.1500000      1.6361363E-35
 -0.1400000      1.5060417E-35
 -0.1300000      1.2329000E-35
 -0.1200000      7.8196583E-36
 -0.1100000      1.3944834E-36
 -0.1000000     -6.2971506E-36
 -9.0000004E-02 -1.4709715E-35
 -7.9999998E-02 -2.4447438E-35
 -7.0000000E-02 -3.6058525E-35
 -5.9999999E-02 -4.7243764E-35
 -5.0000001E-02 -5.5169939E-35
 -3.9999999E-02 -6.3113882E-35
 -2.9999999E-02 -7.1560285E-35
 -2.0000000E-02 -7.6823211E-35
 -9.9999998E-03 -8.2937251E-35
 -3.4694470E-17 -8.9608858E-35
  9.9999998E-03 -9.3205555E-35
  2.0000000E-02 -8.8404528E-35
  2.9999999E-02 -7.3795825E-35
  3.9999999E-02 -7.1689733E-35
  5.0000001E-02 -9.0294238E-35
  5.9999999E-02 -9.5924684E-35
  7.0000000E-02 -7.5055492E-35
  7.9999998E-02 -3.4106062E-35
  9.0000004E-02  3.8758411E-35
  0.1000000      1.4525361E-34
  0.1100000      2.7157173E-34
  0.1200000      4.1030929E-34
  0.1300000      5.5694087E-34
  0.1400000      7.1347497E-34
  0.1500000      8.7244704E-34
  0.1600000      1.0043079E-33
  0.1700000      1.1053851E-33
  0.1800000      1.1611769E-33
  0.1900000      1.1476961E-33
  0.2000000      1.0567126E-33
  0.2100000      8.7203810E-34
  0.2200000      5.7693217E-34
  0.2300000      1.6987706E-34
  0.2400000     -3.6082304E-34
  0.2500000     -1.0358177E-33
  0.2600000     -1.8609012E-33
  0.2700000     -2.8479807E-33
  0.2800000     -4.0105777E-33
  0.2900000     -5.3637635E-33
  0.3000000     -6.9244868E-33
  0.3100000     -8.7114814E-33
  0.3200000     -1.0744478E-32
  0.3300000     -1.3045222E-32
  0.3400000     -1.5631098E-32
  0.3500000     -1.8518027E-32
  0.3600000     -2.1722896E-32
  0.3700000     -2.5257068E-32
  0.3800000     -2.9127425E-32
  0.3900000     -3.3335844E-32
  0.4000000     -3.7878560E-32
  0.4100000     -4.2745671E-32
  0.4200000     -4.7921111E-32
  0.4300000     -5.3382337E-32
  0.4400000     -5.9100006E-32
  0.4500000     -6.5037505E-32
  0.4600000     -7.1150216E-32
  0.4700000     -7.7384645E-32
  0.4800000     -8.3677195E-32
  0.4900000     -8.9952860E-32
  0.5000000     -9.6123876E-32
  0.5100000     -1.0208842E-31
  0.5200000     -1.0772967E-31
  0.5300000     -1.1291499E-31
  0.5400000     -1.1749602E-31
  0.5500000     -1.2130961E-31
  0.5600000     -1.2417891E-31
  0.5700000     -1.2591569E-31
  0.5800000     -1.2632320E-31
  0.5900000     -1.2519955E-31
  0.6000000     -1.2234153E-31
  0.6100000     -1.1754840E-31
  0.6200000     -1.1062581E-31
  0.6300000     -1.0138903E-31
  0.6400000     -8.9665786E-32
  0.6500000     -7.5298089E-32
  0.6600000     -5.8143224E-32
  0.6700000     -3.8073583E-32
  0.6800000     -1.4975440E-32
  0.6900000      1.1253288E-32
  0.7000000      4.0706197E-32
  0.7100000      7.3472376E-32
  0.7200000      1.0964094E-31
  0.7300000      1.4930592E-31
  0.7400000      1.9257144E-31
  0.7500000      2.3955670E-31
  0.7600000      2.9040092E-31
  0.7700000      3.4526761E-31
  0.7800000      4.0434857E-31
  0.7900000      4.6786688E-31
  0.8000000      5.3607898E-31
  0.8100000      6.0927607E-31
  0.8200000      6.8778386E-31
  0.8300000      7.7196186E-31
  0.8400000      8.6220066E-31
  0.8500000      9.5891845E-31
  0.8600000      1.0625571E-30
  0.8700000      1.1735760E-30
  0.8800000      1.2924469E-30
  0.8900000      1.4196475E-30
  0.9000000      1.5556558E-30
  0.9100000      1.7009458E-30
  0.9200000      1.8559841E-30
  0.9300000      2.0212289E-30
  0.9400000      2.1971325E-30
  0.9500000      2.3841459E-30
  0.9600000      2.5827285E-30
  0.9700000      2.7933592E-30
  0.9800000      3.0165547E-30
  0.9900000      3.2528874E-30
   1.000000      3.5030097E-30
   1.010000      3.7676757E-30
   1.020000      4.0477680E-30
   1.030000      4.3443202E-30
   1.040000      4.6585402E-30
   1.050000      4.9918272E-30
   1.060000      5.3457868E-30
   1.070000      5.7222350E-30
   1.080000      6.1232020E-30
   1.090000      6.5509206E-30
   1.100000      7.0078106E-30
   1.110000      7.4964604E-30
   1.120000      8.0195903E-30
   1.130000      8.5800209E-30
   1.140000      9.1806304E-30
   1.150000      9.8243169E-30
   1.160000      1.0513956E-29
   1.170000      1.1252363E-29
   1.180000      1.2042266E-29
   1.190000      1.2886280E-29
   1.200000      1.3786905E-29
   1.210000      1.4746519E-29
   1.220000      1.5767400E-29
   1.230000      1.6851768E-29
   1.240000      1.8001822E-29
   1.250000      1.9219815E-29
   1.260000      2.0508128E-29
   1.270000      2.1869362E-29
   1.280000      2.3306435E-29
   1.290000      2.4822675E-29
   1.300000      2.6421926E-29
   1.310000      2.8108635E-29
   1.320000      2.9887929E-29
   1.330000      3.1765690E-29
   1.340000      3.3748579E-29
   1.350000      3.5844069E-29
   1.360000      3.8060429E-29
   1.370000      4.0406681E-29
   1.380000      4.2892524E-29
   1.390000      4.5528256E-29
   1.400000      4.8324643E-29
   1.410000      5.1292799E-29
   1.420000      5.4444023E-29
   1.430000      5.7789677E-29
   1.440000      6.1341043E-29
   1.450000      6.5109197E-29
   1.460000      6.9104954E-29
   1.470000      7.3338780E-29
   1.480000      7.7820835E-29
   1.490000      8.2560976E-29
   1.500000      8.7568887E-29
   1.510000      9.2854253E-29
   1.520000      9.8426931E-29
   1.530000      1.0429723E-28
   1.540000      1.1047617E-28
   1.550000      1.1697583E-28
   1.560000      1.2380959E-28
   1.570000      1.3099247E-28
   1.580000      1.3854137E-28
   1.590000      1.4647528E-28
   1.600000      1.5481536E-28
   1.610000      1.6358502E-28
   1.620000      1.7280990E-28
   1.630000      1.8251760E-28
   1.640000      1.9273743E-28
   1.650000      2.0349997E-28
   1.660000      2.1483655E-28
   1.670000      2.2677876E-28
   1.680000      2.3935761E-28
   1.690000      2.5260297E-28
   1.700000      2.6654281E-28
   1.710000      2.8120255E-28
   1.720000      2.9660436E-28
   1.730000      3.1276667E-28
   1.740000      3.2970377E-28
   1.750000      3.4742575E-28
   1.760000      3.6593817E-28
   1.770000      3.8524237E-28
   1.780000      4.0533574E-28
   1.790000      4.2621215E-28
   1.800000      4.4786268E-28
   1.810000      4.7027637E-28
   1.820000      4.9344126E-28
   1.830000      5.1734494E-28
   1.840000      5.4197575E-28
   1.850000      5.6732330E-28
   1.860000      5.9337935E-28
   1.870000      6.2013827E-28
   1.880000      6.4759703E-28
   1.890000      6.7575523E-28
   1.900000      7.0461466E-28
   1.910000      7.3417846E-28
   1.920000      7.6445013E-28
   1.930000      7.9543213E-28
   1.940000      8.2712403E-28
   1.950000      8.5952058E-28
   1.960000      8.9261046E-28
   1.970000      9.2637346E-28
   1.980000      9.6077962E-28
   1.990000      9.9578686E-28
   2.000000      1.0313404E-27
   2.010000      1.0673713E-27
   2.020000      1.1037964E-27
   2.030000      1.1405186E-27
   2.040000      1.1774277E-27
   2.050000      1.2144014E-27
   2.060000      1.2513078E-27
   2.070000      1.2880070E-27
   2.080000      1.3243550E-27
   2.090000      1.3602059E-27
   2.100000      1.3954145E-27
   2.110000      1.4298406E-27
   2.120000      1.4633506E-27
   2.130000      1.4958205E-27
   2.140000      1.5271374E-27
   2.150000      1.5572002E-27
   2.160000      1.5859195E-27
   2.170000      1.6132167E-27
   2.180000      1.6390222E-27
   2.190000      1.6632722E-27
   2.200000      1.6859050E-27
   2.210000      1.7068562E-27
   2.220000      1.7260550E-27
   2.230000      1.7434177E-27
   2.240000      1.7588424E-27
   2.250000      1.7722055E-27
   2.260000      1.7833566E-27
   2.270000      1.7921148E-27
   2.280000      1.7982679E-27
   2.290000      1.8015723E-27
   2.300000      1.8017523E-27
   2.310000      1.7985050E-27
   2.320000      1.7915043E-27
   2.330000      1.7804071E-27
   2.340000      1.7648610E-27
   2.350000      1.7445133E-27
   2.360000      1.7190200E-27
   2.370000      1.6880553E-27
   2.380000      1.6513210E-27
   2.390000      1.6085543E-27
   2.400000      1.5595367E-27
   2.410000      1.5040979E-27
   2.420000      1.4421196E-27
   2.430000      1.3735346E-27
   2.440000      1.2983265E-27
   2.450000      1.2165234E-27
   2.460000      1.1281907E-27
   2.470000      1.0334210E-27
   2.480000      9.3232092E-28
   2.490000      8.2499761E-28
   2.500000      7.1154531E-28
   2.510000      5.9203034E-28
   2.520000      4.6647665E-28
   2.530000      3.3485414E-28
   2.540000      1.9706939E-28
   2.550000      5.2960455E-29
   2.560000     -9.7706880E-29
   2.570000     -2.5523663E-28
   2.580000     -4.1999525E-28
   2.590000     -5.9240146E-28
   2.600000     -7.7291074E-28
   2.610000     -9.6199690E-28
   2.620000     -1.1601305E-27
   2.630000     -1.3677561E-27
   2.640000     -1.5852687E-27
   2.650000     -1.8129898E-27
   2.660000     -2.0511485E-27
   2.670000     -2.2998631E-27
   2.680000     -2.5591279E-27
   2.690000     -2.8288076E-27
   2.700000     -3.1086366E-27
   2.710000     -3.3982263E-27
   2.720000     -3.6970779E-27
   2.730000     -4.0046058E-27
   2.740000     -4.3201609E-27
   2.750000     -4.6430662E-27
   2.760000     -4.9726514E-27
   2.770000     -5.3082909E-27
   2.780000     -5.6494405E-27
   2.790000     -5.9956714E-27
   2.800000     -6.3467026E-27
   2.810000     -6.7024234E-27
   2.820000     -7.0629082E-27
   2.830000     -7.4284227E-27
   2.840000     -7.7994192E-27
   2.850000     -8.1765171E-27
   2.860000     -8.5604759E-27
   2.870000     -8.9521553E-27
   2.880000     -9.3524676E-27
   2.890000     -9.7623240E-27
   2.900000     -1.0182570E-26
   2.910000     -1.0613929E-26
   2.920000     -1.1056937E-26
   2.930000     -1.1511892E-26
   2.940000     -1.1978807E-26
   2.950000     -1.2457372E-26
   2.960000     -1.2946932E-26
   2.970000     -1.3446485E-26
   2.980000     -1.3954691E-26
   2.990000     -1.4469894E-26
   3.000000     -1.4990177E-26
   3.010000     -1.5513410E-26
   3.020000     -1.6037337E-26
   3.030000     -1.6559634E-26
   3.040000     -1.7078002E-26
   3.050000     -1.7590256E-26
   3.060000     -1.8094383E-26
   3.070000     -1.8588617E-26
   3.080000     -1.9071486E-26
   3.090000     -1.9541840E-26
   3.100000     -1.9998849E-26
   3.110000     -2.0441978E-26
   3.120000     -2.0870942E-26
   3.130000     -2.1285624E-26
   3.140000     -2.1685979E-26
   3.150000     -2.2071900E-26
   3.160000     -2.2443076E-26
   3.170000     -2.2798854E-26
   3.180000     -2.3138068E-26
   3.190000     -2.3458905E-26
   3.200000     -2.3758754E-26
   3.210000     -2.4034107E-26
   3.220000     -2.4280445E-26
   3.230000     -2.4492196E-26
   3.240000     -2.4662713E-26
   3.250000     -2.4784298E-26
   3.260000     -2.4848259E-26
   3.270000     -2.4845022E-26
   3.280000     -2.4764262E-26
   3.290000     -2.4595076E-26
   3.300000     -2.4326173E-26
   3.310000     -2.3946067E-26
   3.320000     -2.3443288E-26
   3.330000     -2.2806588E-26
   3.340000     -2.2025077E-26
   3.350000     -2.1088384E-26
   3.360000     -1.9986743E-26
   3.370000     -1.8711023E-26
   3.380000     -1.7252732E-26
   3.390000     -1.5603941E-26
   3.400000     -1.3757150E-26
   3.410000     -1.1705110E-26
   3.420000     -9.4405873E-27
   3.430000     -6.9561208E-27
   3.440000     -4.2437524E-27
   3.450000     -1.2947312E-27
   3.460000      1.9007507E-27
   3.470000      5.3537725E-27
   3.480000      9.0768809E-27
   3.490000      1.3084209E-26
   3.500000      1.7391502E-26
   3.510000      2.2016062E-26
   3.520000      2.6976609E-26
   3.530000      3.2293013E-26
   3.540000      3.7985982E-26
   3.550000      4.4076605E-26
   3.560000      5.0585881E-26
   3.570000      5.7534146E-26
   3.580000      6.4940503E-26
   3.590000      7.2822234E-26
   3.600000      8.1194205E-26
   3.610000      9.0068373E-26
   3.620000      9.9453272E-26
   3.630000      1.0935366E-25
   3.640000      1.1977027E-25
   3.650000      1.3069961E-25
   3.660000      1.4213395E-25
   3.670000      1.5406139E-25
   3.680000      1.6646608E-25
   3.690000      1.7932851E-25
   3.700000      1.9262584E-25
   3.710000      2.0633234E-25
   3.720000      2.2041974E-25
   3.730000      2.3485775E-25
   3.740000      2.4961418E-25
   3.750000      2.6465541E-25
   3.760000      2.7994635E-25
   3.770000      2.9545030E-25
   3.780000      3.1112889E-25
   3.790000      3.2694160E-25
   3.800000      3.4284504E-25
   3.810000      3.5879218E-25
   3.820000      3.7473154E-25
   3.830000      3.9060581E-25
   3.840000      4.0635095E-25
   3.850000      4.2189469E-25
   3.860000      4.3715550E-25
   3.870000      4.5204116E-25
   3.880000      4.6644813E-25
   3.890000      4.8026010E-25
   3.900000      4.9334764E-25
   3.910000      5.0556779E-25
   3.920000      5.1676385E-25
   3.930000      5.2676537E-25
   3.940000      5.3538885E-25
   3.950000      5.4243816E-25
   3.960000      5.4770568E-25
   3.970000      5.5097359E-25
   3.980000      5.5201493E-25
   3.990000      5.5059518E-25
   4.000000      5.4647353E-25
   4.010000      5.3940430E-25
   4.020000      5.2913841E-25
   4.030000      5.1542392E-25
   4.040000      4.9800715E-25
   4.050000      4.7663316E-25
   4.060000      4.5104592E-25
   4.070000      4.2098829E-25
   4.080000      3.8620170E-25
   4.090000      3.4642548E-25
   4.100000      3.0139580E-25
   4.110000      2.5084470E-25
   4.120000      1.9449957E-25
   4.130000      1.3208195E-25
   4.140000      6.3306950E-26
   4.150000     -1.2117158E-26
   4.160000     -9.4488792E-26
   4.170000     -1.8411269E-25
   4.180000     -2.8129878E-25
   4.190000     -3.8636045E-25
   4.200000     -4.9961199E-25
   4.210000     -6.2136542E-25
   4.220000     -7.5192678E-25
   4.230000     -8.9159219E-25
   4.240000     -1.0406425E-24
   4.250000     -1.1993388E-24
   4.260000     -1.3679165E-24
   4.270000     -1.5465795E-24
   4.280000     -1.7354954E-24
   4.290000     -1.9347898E-24
   4.300000     -2.1445418E-24
   4.310000     -2.3647778E-24
   4.320000     -2.5954691E-24
   4.330000     -2.8365283E-24
   4.340000     -3.0878061E-24
   4.350000     -3.3490889E-24
   4.360000     -3.6200969E-24
   4.370000     -3.9004833E-24
   4.380000     -4.1898324E-24
   4.390000     -4.4876601E-24
   4.400000     -4.7934119E-24
   4.410000     -5.1064615E-24
   4.420000     -5.4261111E-24
   4.430000     -5.7515872E-24
   4.440000     -6.0820379E-24
   4.450000     -6.4165311E-24
   4.460000     -6.7540472E-24
   4.470000     -7.0934728E-24
   4.480000     -7.4335988E-24
   4.490000     -7.7731072E-24
   4.500000     -8.1105661E-24
   4.510000     -8.4444199E-24
   4.520000     -8.7729781E-24
   4.530000     -9.0944098E-24
   4.540000     -9.4067308E-24
   4.550000     -9.7077972E-24
   4.560000     -9.9952968E-24
   4.570000     -1.0266743E-23
   4.580000     -1.0519468E-23
   4.590000     -1.0750623E-23
   4.600000     -1.0957175E-23
   4.610000     -1.1135904E-23
   4.620000     -1.1283409E-23
   4.630000     -1.1396111E-23
   4.640000     -1.1470257E-23
   4.650000     -1.1501927E-23
   4.660000     -1.1487049E-23
   4.670000     -1.1421399E-23
   4.680000     -1.1300620E-23
   4.690000     -1.1120227E-23
   4.700000     -1.0875617E-23
   4.710000     -1.0562082E-23
   4.720000     -1.0174820E-23
   4.730000     -9.7089474E-24
   4.740000     -9.1594995E-24
   4.750000     -8.5214435E-24
   4.760000     -7.7896883E-24
   4.770000     -6.9590935E-24
   4.780000     -6.0244720E-24
   4.790000     -4.9806027E-24
   4.800000     -3.8222397E-24
   4.810000     -2.5441226E-24
   4.820000     -1.1409922E-24
   4.830000      3.9239702E-25
   4.840000      2.0612561E-24
   4.850000      3.8707373E-24
   4.860000      5.8259078E-24
   4.870000      7.9317171E-24
   4.880000      1.0192964E-23
   4.890000      1.2614254E-23
   4.900000      1.5199950E-23
   4.910000      1.7954127E-23
   4.920000      2.0880530E-23
   4.930000      2.3982506E-23
   4.940000      2.7262948E-23
   4.950000      3.0724239E-23
   4.960000      3.4368189E-23
   4.970000      3.8195986E-23
   4.980000      4.2208110E-23
   4.990000      4.6404301E-23
   5.000000      5.0783482E-23
   5.010000      5.5343711E-23
   5.020000      6.0082127E-23
   5.030000      6.4994900E-23
   5.040000      7.0077171E-23
   5.050000      7.5323008E-23
   5.060000      8.0725342E-23
   5.070000      8.6275956E-23
   5.080000      9.1965404E-23
   5.090000      9.7782951E-23
   5.100000      1.0371657E-22
   5.110000      1.0975287E-22
   5.120000      1.1587699E-22
   5.130000      1.2207262E-22
   5.140000      1.2832188E-22
   5.150000      1.3460532E-22
   5.160000      1.4090173E-22
   5.170000      1.4718819E-22
   5.180000      1.5344002E-22
   5.190000      1.5963059E-22
   5.200000      1.6573127E-22
   5.210000      1.7171145E-22
   5.220000      1.7753844E-22
   5.230000      1.8317734E-22
   5.240000      1.8859113E-22
   5.250000      1.9374049E-22
   5.260000      1.9858384E-22
   5.270000      2.0307731E-22
   5.280000      2.0717468E-22
   5.290000      2.1082752E-22
   5.300000      2.1398510E-22
   5.310000      2.1659440E-22
   5.320000      2.1860025E-22
   5.330000      2.1994533E-22
   5.340000      2.2057020E-22
   5.350000      2.2041352E-22
   5.360000      2.1941208E-22
   5.370000      2.1750092E-22
   5.380000      2.1461336E-22
   5.390000      2.1068123E-22
   5.400000      2.0563498E-22
   5.410000      1.9940379E-22
   5.420000      1.9191576E-22
   5.430000      1.8309800E-22
   5.440000      1.7287687E-22
   5.450000      1.6117831E-22
   5.460000      1.4792773E-22
   5.470000      1.3305039E-22
   5.480000      1.1647158E-22
   5.490000      9.8116797E-23
   5.500000      7.7912144E-23
   5.510000      5.5784539E-23
   5.520000      3.1662081E-23
   5.530000      5.4743811E-24
   5.540000     -2.2847143E-23
   5.550000     -5.3368763E-23
   5.560000     -8.6154011E-23
   5.570000     -1.2126336E-22
   5.580000     -1.5875359E-22
   5.590000     -1.9867721E-22
   5.600000     -2.4108205E-22
   5.610000     -2.8601067E-22
   5.620000     -3.3349967E-22
   5.630000     -3.8357913E-22
   5.640000     -4.3627214E-22
   5.650000     -4.9159383E-22
   5.660000     -5.4955110E-22
   5.670000     -6.1014158E-22
   5.680000     -6.7335314E-22
   5.690000     -7.3916332E-22
   5.700000     -8.0753830E-22
   5.710000     -8.7843259E-22
   5.720000     -9.5178842E-22
   5.730000     -1.0275346E-21
   5.740000     -1.1055862E-21
   5.750000     -1.1858435E-21
   5.760000     -1.2681923E-21
   5.770000     -1.3525020E-21
   5.780000     -1.4386258E-21
   5.790000     -1.5263995E-21
   5.800000     -1.6156412E-21
   5.810000     -1.7061505E-21
   5.820000     -1.7977080E-21
   5.830000     -1.8900746E-21
   5.840000     -1.9829900E-21
   5.850000     -2.0761737E-21
   5.860000     -2.1693226E-21
   5.870000     -2.2621118E-21
   5.880000     -2.3541936E-21
   5.890000     -2.4451964E-21
   5.900000     -2.5347254E-21
   5.910000     -2.6223605E-21
   5.920000     -2.7076576E-21
   5.930000     -2.7901473E-21
   5.940000     -2.8693351E-21
   5.950000     -2.9447008E-21
   5.960000     -3.0156988E-21
   5.970000     -3.0817585E-21
   5.980000     -3.1422849E-21
   5.990000     -3.1966583E-21
   6.000000     -3.2442343E-21
   6.010000     -3.2843459E-21
   6.020000     -3.3163016E-21
   6.030000     -3.3393877E-21
   6.040000     -3.3528710E-21
   6.050000     -3.3559970E-21
   6.060000     -3.3479921E-21
   6.070000     -3.3280661E-21
   6.080000     -3.2954118E-21
   6.090000     -3.2492072E-21
   6.100000     -3.1886175E-21
   6.110000     -3.1127976E-21
   6.120000     -3.0208931E-21
   6.130000     -2.9120427E-21
   6.140000     -2.7853807E-21
   6.150000     -2.6400400E-21
   6.160000     -2.4751548E-21
   6.170000     -2.2898631E-21
   6.180000     -2.0833097E-21
   6.190000     -1.8546478E-21
   6.200000     -1.6030450E-21
   6.210000     -1.3276861E-21
   6.220000     -1.0277767E-21
   6.230000     -7.0254695E-22
   6.240000     -3.5125798E-22
   6.250000      2.6795017E-23
   6.260000      4.3227876E-22
   6.270000      8.6581516E-22
   6.280000      1.3279764E-21
   6.290000      1.8192802E-21
   6.300000      2.3401852E-21
   6.310000      2.8910823E-21
   6.320000      3.4722893E-21
   6.330000      4.0840480E-21
   6.340000      4.7265145E-21
   6.350000      5.3997543E-21
   6.360000      6.1037363E-21
   6.370000      6.8383247E-21
   6.380000      7.6032737E-21
   6.390000      8.3982226E-21
   6.400000      9.2226874E-21
   6.410000      1.0076050E-20
   6.420000      1.0957561E-20
   6.430000      1.1866322E-20
   6.440000      1.2801289E-20
   6.450000      1.3761259E-20
   6.460000      1.4744868E-20
   6.470000      1.5750579E-20
   6.480000      1.6776682E-20
   6.490000      1.7821286E-20
   6.500000      1.8882312E-20
   6.510000      1.9957484E-20
   6.520000      2.1044329E-20
   6.530000      2.2140172E-20
   6.540000      2.3242124E-20
   6.550000      2.4347081E-20
   6.560000      2.5451722E-20
   6.570000      2.6552499E-20
   6.580000      2.7645639E-20
   6.590000      2.8727146E-20
   6.600000      2.9792777E-20
   6.610000      3.0838072E-20
   6.620000      3.1858318E-20
   6.630000      3.2848573E-20
   6.640000      3.3803666E-20
   6.650000      3.4718179E-20
   6.660000      3.5586480E-20
   6.670000      3.6402687E-20
   6.680000      3.7160701E-20
   6.690000      3.7854208E-20
   6.700000      3.8476662E-20
   6.710000      3.9021331E-20
   6.720000      3.9481272E-20
   6.730000      3.9849355E-20
   6.740000      4.0118273E-20
   6.750000      4.0280545E-20
   6.760000      4.0328525E-20
   6.770000      4.0254441E-20
   6.780000      4.0050382E-20
   6.790000      3.9708346E-20
   6.800000      3.9220232E-20
   6.810000      3.8577868E-20
   6.820000      3.7773028E-20
   6.830000      3.6797472E-20
   6.840000      3.5642954E-20
   6.850000      3.4301241E-20
   6.860000      3.2764159E-20
   6.870000      3.1023600E-20
   6.880000      2.9071560E-20
   6.890000      2.6900187E-20
   6.900000      2.4501801E-20
   6.910000      2.1868923E-20
   6.920000      1.8994322E-20
   6.930000      1.5871055E-20
   6.940000      1.2492499E-20
   6.950000      8.8523989E-21
   6.960000      4.9448978E-21
   6.970000      7.6460756E-22
   6.980000     -3.6933602E-21
   6.990000     -8.4333632E-21
   7.000000     -1.3459158E-20
   7.010000     -1.8773866E-20
   7.020000     -2.4379919E-20
   7.030000     -3.0279021E-20
   7.040000     -3.6472064E-20
   7.050000     -4.2959089E-20
   7.060000     -4.9739252E-20