  -2.600000      0.0000000E+00
  -2.590000      0.0000000E+00
  -2.580000      0.0000000E+00
  -2.570000      0.0000000E+00
  -2.560000      0.0000000E+00
  -2.550000      0.0000000E+00
  -2.540000      0.0000000E+00
  -2.530000      0.0000000E+00
  -2.520000      0.0000000E+00
  -2.510000      0.0000000E+00
  -2.500000      0.0000000E+00
  -2.490000      0.0000000E+00
  -2.480000      0.0000000E+00
  -2.470000      0.0000000E+00
  -2.460000      0.0000000E+00
  -2.450000      0.0000000E+00
  -2.440000      0.0000000E+00
  -2.430000      0.0000000E+00
  -2.420000      0.0000000E+00
  -2.410000      0.0000000E+00
  -2.400000      0.0000000E+00
  -2.390000      0.0000000E+00
  -2.380000      0.0000000E+00
  -2.370000      0.0000000E+00
  -2.360000      0.0000000E+00
  -2.350000      0.0000000E+00
  -2.340000      0.0000000E+00
  -2.330000      0.0000000E+00
  -2.320000      0.0000000E+00
  -2.310000      0.0000000E+00
  -2.300000      0.0000000E+00
  -2.290000      0.0000000E+00
  -2.280000      0.0000000E+00
  -2.270000      0.0000000E+00
  -2.260000      0.0000000E+00
  -2.250000      0.0000000E+00
  -2.240000      0.0000000E+00
  -2.230000      0.0000000E+00
  -2.220000      0.0000000E+00
  -2.210000      0.0000000E+00
  -2.200000      0.0000000E+00
  -2.190000      0.0000000E+00
  -2.180000      0.0000000E+00
  -2.170000      0.0000000E+00
  -2.160000      0.0000000E+00
  -2.150000      0.0000000E+00
  -2.140000      0.0000000E+00
  -2.130000      0.0000000E+00
  -2.120000      0.0000000E+00
  -2.110000      0.0000000E+00
  -2.100000      0.0000000E+00
  -2.090000      0.0000000E+00
  -2.080000      0.0000000E+00
  -2.070000      0.0000000E+00
  -2.060000      0.0000000E+00
  -2.050000      0.0000000E+00
  -2.040000      0.0000000E+00
  -2.030000      0.0000000E+00
  -2.020000      0.0000000E+00
  -2.010000      0.0000000E+00
  -2.000000      0.0000000E+00
  -1.990000      0.0000000E+00
  -1.980000      0.0000000E+00
  -1.970000      0.0000000E+00
  -1.960000      0.0000000E+00
  -1.950000      0.0000000E+00
  -1.940000      0.0000000E+00
  -1.930000      0.0000000E+00
  -1.920000      0.0000000E+00
  -1.910000      0.0000000E+00
  -1.900000      0.0000000E+00
  -1.890000      0.0000000E+00
  -1.880000      0.0000000E+00
  -1.870000      0.0000000E+00
  -1.860000      0.0000000E+00
  -1.850000      0.0000000E+00
  -1.840000      0.0000000E+00
  -1.830000      0.0000000E+00
  -1.820000      0.0000000E+00
  -1.810000      0.0000000E+00
  -1.800000      0.0000000E+00
  -1.790000      0.0000000E+00
  -1.780000      0.0000000E+00
  -1.770000      0.0000000E+00
  -1.760000      0.0000000E+00
  -1.750000      0.0000000E+00
  -1.740000      0.0000000E+00
  -1.730000      0.0000000E+00
  -1.720000      0.0000000E+00
  -1.710000      0.0000000E+00
  -1.700000      0.0000000E+00
  -1.690000      0.0000000E+00
  -1.680000      0.0000000E+00
  -1.670000      0.0000000E+00
  -1.660000      0.0000000E+00
  -1.650000      0.0000000E+00
  -1.640000      0.0000000E+00
  -1.630000      0.0000000E+00
  -1.620000      0.0000000E+00
  -1.610000      0.0000000E+00
  -1.600000      0.0000000E+00
  -1.590000      0.0000000E+00
  -1.580000      0.0000000E+00
  -1.570000      0.0000000E+00
  -1.560000      0.0000000E+00
  -1.550000      0.0000000E+00
  -1.540000      0.0000000E+00
  -1.530000      0.0000000E+00
  -1.520000      0.0000000E+00
  -1.510000      0.0000000E+00
  -1.500000      0.0000000E+00
  -1.490000      0.0000000E+00
  -1.480000      0.0000000E+00
  -1.470000      0.0000000E+00
  -1.460000      0.0000000E+00
  -1.450000      0.0000000E+00
  -1.440000      0.0000000E+00
  -1.430000      0.0000000E+00
  -1.420000      0.0000000E+00
  -1.410000      0.0000000E+00
  -1.400000      0.0000000E+00
  -1.390000      0.0000000E+00
  -1.380000      0.0000000E+00
  -1.370000      0.0000000E+00
  -1.360000      0.0000000E+00
  -1.350000      0.0000000E+00
  -1.340000      0.0000000E+00
  -1.330000      0.0000000E+00
  -1.320000      0.0000000E+00
  -1.310000      0.0000000E+00
  -1.300000      0.0000000E+00
  -1.290000      0.0000000E+00
  -1.280000      0.0000000E+00
  -1.270000      0.0000000E+00
  -1.260000      0.0000000E+00
  -1.250000      0.0000000E+00
  -1.240000      0.0000000E+00
  -1.230000      0.0000000E+00
  -1.220000      0.0000000E+00
  -1.210000      0.0000000E+00
  -1.200000      0.0000000E+00
  -1.190000      0.0000000E+00
  -1.180000      0.0000000E+00
  -1.170000      0.0000000E+00
  -1.160000      0.0000000E+00
  -1.150000      0.0000000E+00
  -1.140000      0.0000000E+00
  -1.130000      0.0000000E+00
  -1.120000      0.0000000E+00
  -1.110000      0.0000000E+00
  -1.100000      0.0000000E+00
  -1.090000      0.0000000E+00
  -1.080000      0.0000000E+00
  -1.070000      0.0000000E+00
  -1.060000      0.0000000E+00
  -1.050000      0.0000000E+00
  -1.040000      0.0000000E+00
  -1.030000      0.0000000E+00
  -1.020000      0.0000000E+00
  -1.010000      0.0000000E+00
  -1.000000      0.0000000E+00
 -0.9900000      0.0000000E+00
 -0.9800000      0.0000000E+00
 -0.9700000      0.0000000E+00
 -0.9600000      0.0000000E+00
 -0.9500000      0.0000000E+00
 -0.9400000      0.0000000E+00
 -0.9300000      0.0000000E+00
 -0.9200000      0.0000000E+00
 -0.9100000      0.0000000E+00
 -0.9000000      0.0000000E+00
 -0.8900000      0.0000000E+00
 -0.8800000      0.0000000E+00
 -0.8700000      0.0000000E+00
 -0.8600000      0.0000000E+00
 -0.8500000      0.0000000E+00
 -0.8400000      0.0000000E+00
 -0.8300000      0.0000000E+00
 -0.8200000      0.0000000E+00
 -0.8100000      0.0000000E+00
 -0.8000000      0.0000000E+00
 -0.7900000      0.0000000E+00
 -0.7800000      0.0000000E+00
 -0.7700000      0.0000000E+00
 -0.7600000      0.0000000E+00
 -0.7500000      0.0000000E+00
 -0.7400000      0.0000000E+00
 -0.7300000      0.0000000E+00
 -0.7200000      0.0000000E+00
 -0.7100000      0.0000000E+00
 -0.7000000      0.0000000E+00
 -0.6900000      0.0000000E+00
 -0.6800000      0.0000000E+00
 -0.6700000      0.0000000E+00
 -0.6600000      0.0000000E+00
 -0.6500000      0.0000000E+00
 -0.6400000      0.0000000E+00
 -0.6300000      0.0000000E+00
 -0.6200000      0.0000000E+00
 -0.6100000      0.0000000E+00
 -0.6000000      0.0000000E+00
 -0.5900000      0.0000000E+00
 -0.5800000      0.0000000E+00
 -0.5700000      0.0000000E+00
 -0.5600000      0.0000000E+00
 -0.5500000      0.0000000E+00
 -0.5400000      0.0000000E+00
 -0.5300000      0.0000000E+00
 -0.5200000      0.0000000E+00
 -0.5100000      0.0000000E+00
 -0.5000000      0.0000000E+00
 -0.4900000      0.0000000E+00
 -0.4800000      0.0000000E+00
 -0.4700000      0.0000000E+00
 -0.4600000      0.0000000E+00
 -0.4500000      0.0000000E+00
 -0.4400000      0.0000000E+00
 -0.4300000      0.0000000E+00
 -0.4200000      0.0000000E+00
 -0.4100000      0.0000000E+00
 -0.4000000      0.0000000E+00
 -0.3900000      0.0000000E+00
 -0.3800000      0.0000000E+00
 -0.3700000      0.0000000E+00
 -0.3600000      0.0000000E+00
 -0.3500000      0.0000000E+00
 -0.3400000      0.0000000E+00
 -0.3300000      0.0000000E+00
 -0.3200000      0.0000000E+00
 -0.3100000      0.0000000E+00
 -0.3000000      0.0000000E+00
 -0.2900000      0.0000000E+00
 -0.2800000      0.0000000E+00
 -0.2700000      0.0000000E+00
 -0.2600000      0.0000000E+00
 -0.2500000      0.0000000E+00
 -0.2400000      0.0000000E+00
 -0.2300000      0.0000000E+00
 -0.2200000      0.0000000E+00
 -0.2100000      0.0000000E+00
 -0.2000000      0.0000000E+00
 -0.1900000      0.0000000E+00
 -0.1800000      0.0000000E+00
 -0.1700000      0.0000000E+00
 -0.1600000      0.0000000E+00
 -0.1500000      0.0000000E+00
 -0.1400000      0.0000000E+00
 -0.1300000      0.0000000E+00
 -0.1200000      0.0000000E+00
 -0.1100000      0.0000000E+00
 -0.1000000      0.0000000E+00
 -9.0000004E-02  0.0000000E+00
 -7.9999998E-02  0.0000000E+00
 -7.0000000E-02  0.0000000E+00
 -5.9999999E-02  0.0000000E+00
 -5.0000001E-02  0.0000000E+00
 -3.9999999E-02  0.0000000E+00
 -2.9999999E-02  0.0000000E+00
 -2.0000000E-02  0.0000000E+00
 -9.9999998E-03  0.0000000E+00
 -3.4694470E-17  0.0000000E+00
  9.9999998E-03  0.0000000E+00
  2.0000000E-02  0.0000000E+00
  2.9999999E-02  0.0000000E+00
  3.9999999E-02  0.0000000E+00
  5.0000001E-02  0.0000000E+00
  5.9999999E-02  0.0000000E+00
  7.0000000E-02  0.0000000E+00
  7.9999998E-02  0.0000000E+00
  9.0000004E-02  0.0000000E+00
  0.1000000      0.0000000E+00
  0.1100000      0.0000000E+00
  0.1200000      0.0000000E+00
  0.1300000      0.0000000E+00
  0.1400000      0.0000000E+00
  0.1500000      0.0000000E+00
  0.1600000      0.0000000E+00
  0.1700000      0.0000000E+00
  0.1800000      0.0000000E+00
  0.1900000      0.0000000E+00
  0.2000000      0.0000000E+00
  0.2100000      0.0000000E+00
  0.2200000      0.0000000E+00
  0.2300000      0.0000000E+00
  0.2400000      0.0000000E+00
  0.2500000      0.0000000E+00
  0.2600000      0.0000000E+00
  0.2700000      0.0000000E+00
  0.2800000      0.0000000E+00
  0.2900000      0.0000000E+00
  0.3000000      0.0000000E+00
  0.3100000      0.0000000E+00
  0.3200000      0.0000000E+00
  0.3300000      0.0000000E+00
  0.3400000      0.0000000E+00
  0.3500000      0.0000000E+00
  0.3600000      0.0000000E+00
  0.3700000      0.0000000E+00
  0.3800000      0.0000000E+00
  0.3900000      0.0000000E+00
  0.4000000      0.0000000E+00
  0.4100000      0.0000000E+00
  0.4200000      0.0000000E+00
  0.4300000      0.0000000E+00
  0.4400000      0.0000000E+00
  0.4500000      0.0000000E+00
  0.4600000      0.0000000E+00
  0.4700000      0.0000000E+00
  0.4800000      0.0000000E+00
  0.4900000      0.0000000E+00
  0.5000000      0.0000000E+00
  0.5100000      0.0000000E+00
  0.5200000      0.0000000E+00
  0.5300000      0.0000000E+00
  0.5400000      0.0000000E+00
  0.5500000      0.0000000E+00
  0.5600000      0.0000000E+00
  0.5700000      0.0000000E+00
  0.5800000      0.0000000E+00
  0.5900000      0.0000000E+00
  0.6000000      0.0000000E+00
  0.6100000      0.0000000E+00
  0.6200000      0.0000000E+00
  0.6300000      0.0000000E+00
  0.6400000      0.0000000E+00
  0.6500000      0.0000000E+00
  0.6600000      0.0000000E+00
  0.6700000      0.0000000E+00
  0.6800000      0.0000000E+00
  0.6900000      0.0000000E+00
  0.7000000      0.0000000E+00
  0.7100000      0.0000000E+00
  0.7200000      0.0000000E+00
  0.7300000      0.0000000E+00
  0.7400000      0.0000000E+00
  0.7500000      0.0000000E+00
  0.7600000      0.0000000E+00
  0.7700000      0.0000000E+00
  0.7800000      0.0000000E+00
  0.7900000      0.0000000E+00
  0.8000000      0.0000000E+00
  0.8100000      0.0000000E+00
  0.8200000      0.0000000E+00
  0.8300000      0.0000000E+00
  0.8400000      0.0000000E+00
  0.8500000      0.0000000E+00
  0.8600000      0.0000000E+00
  0.8700000      0.0000000E+00
  0.8800000      0.0000000E+00
  0.8900000      0.0000000E+00
  0.9000000      0.0000000E+00
  0.9100000      0.0000000E+00
  0.9200000      0.0000000E+00
  0.9300000      0.0000000E+00
  0.9400000      0.0000000E+00
  0.9500000      0.0000000E+00
  0.9600000      0.0000000E+00
  0.9700000      0.0000000E+00
  0.9800000      0.0000000E+00
  0.9900000      0.0000000E+00
   1.000000      0.0000000E+00
   1.010000      0.0000000E+00
   1.020000      0.0000000E+00
   1.030000      0.0000000E+00
   1.040000      0.0000000E+00
   1.050000      0.0000000E+00
   1.060000      0.0000000E+00
   1.070000      0.0000000E+00
   1.080000      0.0000000E+00
   1.090000      0.0000000E+00
   1.100000      0.0000000E+00
   1.110000      0.0000000E+00
   1.120000      0.0000000E+00
   1.130000      0.0000000E+00
   1.140000      0.0000000E+00
   1.150000      0.0000000E+00
   1.160000      0.0000000E+00
   1.170000      0.0000000E+00
   1.180000      0.0000000E+00
   1.190000      0.0000000E+00
   1.200000      0.0000000E+00
   1.210000      0.0000000E+00
   1.220000      0.0000000E+00
   1.230000      0.0000000E+00
   1.240000      0.0000000E+00
   1.250000      0.0000000E+00
   1.260000      0.0000000E+00
   1.270000      0.0000000E+00
   1.280000      0.0000000E+00
   1.290000      0.0000000E+00
   1.300000      0.0000000E+00
   1.310000      0.0000000E+00
   1.320000      0.0000000E+00
   1.330000      0.0000000E+00
   1.340000      0.0000000E+00
   1.350000      0.0000000E+00
   1.360000      0.0000000E+00
   1.370000      0.0000000E+00
   1.380000      0.0000000E+00
   1.390000      0.0000000E+00
   1.400000      0.0000000E+00
   1.410000      0.0000000E+00
   1.420000      0.0000000E+00
   1.430000      0.0000000E+00
   1.440000      0.0000000E+00
   1.450000      0.0000000E+00
   1.460000      0.0000000E+00
   1.470000      0.0000000E+00
   1.480000      0.0000000E+00
   1.490000      0.0000000E+00
   1.500000      0.0000000E+00
   1.510000      0.0000000E+00
   1.520000      0.0000000E+00
   1.530000      0.0000000E+00
   1.540000      0.0000000E+00
   1.550000      0.0000000E+00
   1.560000      0.0000000E+00
   1.570000      0.0000000E+00
   1.580000      0.0000000E+00
   1.590000      0.0000000E+00
   1.600000      0.0000000E+00
   1.610000      0.0000000E+00
   1.620000      0.0000000E+00
   1.630000      0.0000000E+00
   1.640000      0.0000000E+00
   1.650000      0.0000000E+00
   1.660000      0.0000000E+00
   1.670000      0.0000000E+00
   1.680000      0.0000000E+00
   1.690000      0.0000000E+00
   1.700000      0.0000000E+00
   1.710000      0.0000000E+00
   1.720000      0.0000000E+00
   1.730000      0.0000000E+00
   1.740000      0.0000000E+00
   1.750000      0.0000000E+00
   1.760000      0.0000000E+00
   1.770000      0.0000000E+00
   1.780000      0.0000000E+00
   1.790000      0.0000000E+00
   1.800000      0.0000000E+00
   1.810000      0.0000000E+00
   1.820000      0.0000000E+00
   1.830000     -1.2658494E-38
   1.840000     -2.1005142E-38
   1.850000     -2.8478283E-38
   1.860000     -5.3512051E-38
   1.870000     -9.8239755E-38
   1.880000     -1.4541668E-37
   1.890000     -1.9628189E-37
   1.900000     -2.4895460E-37
   1.910000     -3.0229174E-37
   1.920000     -3.4115876E-37
   1.930000     -3.5015778E-37
   1.940000     -3.4335947E-37
   1.950000     -3.3268209E-37
   1.960000     -3.1682038E-37
   1.970000     -2.9473632E-37
   1.980000     -2.6677987E-37
   1.990000     -1.9837371E-37
   2.000000     -8.6710897E-38
   2.010000      2.9369596E-38
   2.020000      1.4858993E-37
   2.030000      2.6265873E-37
   2.040000      3.6057862E-37
   2.050000      4.7200755E-37
   2.060000      6.1793146E-37
   2.070000      7.7146606E-37
   2.080000      9.0082523E-37
   2.090000      1.0449344E-36
   2.100000      1.2457736E-36
   2.110000      1.4882913E-36
   2.120000      1.7489973E-36
   2.130000      1.9932963E-36
   2.140000      2.1668203E-36
   2.150000      2.2681927E-36
   2.160000      2.3527284E-36
   2.170000      2.3719008E-36
   2.180000      2.3395181E-36
   2.190000      2.3248866E-36
   2.200000      2.3216939E-36
   2.210000      2.2729597E-36
   2.220000      2.1346361E-36
   2.230000      1.9491899E-36
   2.240000      1.7554427E-36
   2.250000      1.6154960E-36
   2.260000      1.4954695E-36
   2.270000      1.3314404E-36
   2.280000      1.0839673E-36
   2.290000      7.2010374E-37
   2.300000      3.4116716E-37
   2.310000     -1.5732915E-37
   2.320000     -9.0154889E-37
   2.330000     -1.7992502E-36
   2.340000     -2.8443161E-36
   2.350000     -4.0791207E-36
   2.360000     -5.4237621E-36
   2.370000     -6.8842227E-36
   2.380000     -8.2759315E-36
   2.390000     -9.5459648E-36
   2.400000     -1.0833986E-35
   2.410000     -1.2068859E-35
   2.420000     -1.3256831E-35
   2.430000     -1.3955886E-35
   2.440000     -1.4178027E-35
   2.450000     -1.4607068E-35
   2.460000     -1.5225832E-35
   2.470000     -1.5721653E-35
   2.480000     -1.6211938E-35
   2.490000     -1.6819189E-35
   2.500000     -1.7487236E-35
   2.510000     -1.8092231E-35
   2.520000     -1.8510266E-35
   2.530000     -1.8826723E-35
   2.540000     -1.9062957E-35
   2.550000     -1.8708882E-35
   2.560000     -1.7696874E-35
   2.570000     -1.6384032E-35
   2.580000     -1.4854948E-35
   2.590000     -1.3366144E-35
   2.600000     -1.1818560E-35
   2.610000     -1.0015862E-35
   2.620000     -7.9879210E-36
   2.630000     -5.7915048E-36
   2.640000     -3.7180713E-36
   2.650000     -1.7132294E-36
   2.660000      7.0824001E-37
   2.670000      3.8934824E-36
   2.680000      7.9220190E-36
   2.690000      1.2893887E-35
   2.700000      1.8720029E-35
   2.710000      2.4873630E-35
   2.720000      3.1812238E-35
   2.730000      3.9770822E-35
   2.740000      4.8300965E-35
   2.750000      5.7479056E-35
   2.760000      6.7065741E-35
   2.770000      7.6469564E-35
   2.780000      8.5491873E-35
   2.790000      9.4253473E-35
   2.800000      1.0263664E-34
   2.810000      1.1074888E-34
   2.820000      1.1860727E-34
   2.830000      1.2572786E-34
   2.840000      1.3201929E-34
   2.850000      1.3708779E-34
   2.860000      1.4068218E-34
   2.870000      1.4332037E-34
   2.880000      1.4489040E-34
   2.890000      1.4497886E-34
   2.900000      1.4357886E-34
   2.910000      1.4055342E-34
   2.920000      1.3613893E-34
   2.930000      1.3072579E-34
   2.940000      1.2362865E-34
   2.950000      1.1504478E-34
   2.960000      1.0451405E-34
   2.970000      9.2030997E-35
   2.980000      7.8152851E-35
   2.990000      6.2163109E-35
   3.000000      4.5023641E-35
   3.010000      2.7827320E-35
   3.020000      1.0169859E-35
   3.030000     -1.1645544E-35
   3.040000     -3.7482012E-35
   3.050000     -6.3970012E-35
   3.060000     -9.0134542E-35
   3.070000     -1.1492025E-34
   3.080000     -1.3980225E-34
   3.090000     -1.6666067E-34
   3.100000     -1.9548519E-34
   3.110000     -2.2722193E-34
   3.120000     -2.6356039E-34
   3.130000     -3.0281400E-34
   3.140000     -3.4310733E-34
   3.150000     -3.8454679E-34
   3.160000     -4.2641025E-34
   3.170000     -4.6849580E-34
   3.180000     -5.1180243E-34
   3.190000     -5.5588944E-34
   3.200000     -6.0331242E-34
   3.210000     -6.5416573E-34
   3.220000     -7.0416097E-34
   3.230000     -7.5285798E-34
   3.240000     -7.9924974E-34
   3.250000     -8.3889200E-34
   3.260000     -8.7118641E-34
   3.270000     -8.9841270E-34
   3.280000     -9.1868428E-34
   3.290000     -9.3209796E-34
   3.300000     -9.3885117E-34
   3.310000     -9.3450873E-34
   3.320000     -9.1736553E-34
   3.330000     -8.9191056E-34
   3.340000     -8.6002969E-34
   3.350000     -8.2081446E-34
   3.360000     -7.7193511E-34
   3.370000     -7.1254693E-34
   3.380000     -6.4260759E-34
   3.390000     -5.6145679E-34
   3.400000     -4.6875487E-34
   3.410000     -3.6416269E-34
   3.420000     -2.5296207E-34
   3.430000     -1.3626805E-34
   3.440000     -1.2253401E-35
   3.450000      1.1896612E-34
   3.460000      2.6104116E-34
   3.470000      4.1535951E-34
   3.480000      5.7649434E-34
   3.490000      7.4633473E-34
   3.500000      9.2806758E-34
   3.510000      1.1149404E-33
   3.520000      1.3089884E-33
   3.530000      1.5152812E-33
   3.540000      1.7337868E-33
   3.550000      1.9629845E-33
   3.560000      2.2000877E-33
   3.570000      2.4427498E-33
   3.580000      2.6885661E-33
   3.590000      2.9376699E-33
   3.600000      3.1853913E-33
   3.610000      3.4288186E-33
   3.620000      3.6694261E-33
   3.630000      3.9062147E-33
   3.640000      4.1374246E-33
   3.650000      4.3614297E-33
   3.660000      4.5747430E-33
   3.670000      4.7720549E-33
   3.680000      4.9526912E-33
   3.690000      5.1145227E-33
   3.700000      5.2499664E-33
   3.710000      5.3574415E-33
   3.720000      5.4409850E-33
   3.730000      5.4990772E-33
   3.740000      5.5253704E-33
   3.750000      5.5111686E-33
   3.760000      5.4561301E-33
   3.770000      5.3608993E-33
   3.780000      5.2169699E-33
   3.790000      5.0230633E-33
   3.800000      4.7786549E-33
   3.810000      4.4778878E-33
   3.820000      4.1187089E-33
   3.830000      3.7022591E-33
   3.840000      3.2255458E-33
   3.850000      2.6858147E-33
   3.860000      2.0853202E-33
   3.870000      1.4212646E-33
   3.880000      6.8917842E-34
   3.890000     -1.0851920E-34
   3.900000     -9.7030061E-34
   3.910000     -1.8969964E-33
   3.920000     -2.8872729E-33
   3.930000     -3.9414899E-33
   3.940000     -5.0569976E-33
   3.950000     -6.2343070E-33
   3.960000     -7.4722187E-33
   3.970000     -8.7641134E-33
   3.980000     -1.0106900E-32
   3.990000     -1.1497062E-32
   4.000000     -1.2931978E-32
   4.010000     -1.4407062E-32
   4.020000     -1.5916432E-32
   4.030000     -1.7453861E-32
   4.040000     -1.9010684E-32
   4.050000     -2.0579903E-32
   4.060000     -2.2154516E-32
   4.070000     -2.3725132E-32
   4.080000     -2.5281721E-32
   4.090000     -2.6814443E-32
   4.100000     -2.8312954E-32
   4.110000     -2.9766147E-32
   4.120000     -3.1161926E-32
   4.130000     -3.2486467E-32
   4.140000     -3.3724904E-32
   4.150000     -3.4862829E-32
   4.160000     -3.5885230E-32
   4.170000     -3.6775873E-32
   4.180000     -3.7519144E-32
   4.190000     -3.8099729E-32
   4.200000     -3.8500499E-32
   4.210000     -3.8704574E-32
   4.220000     -3.8695913E-32
   4.230000     -3.8458032E-32
   4.240000     -3.7976364E-32
   4.250000     -3.7230563E-32
   4.260000     -3.6202228E-32
   4.270000     -3.4877861E-32
   4.280000     -3.3240626E-32
   4.290000     -3.1272273E-32
   4.300000     -2.8956232E-32
   4.310000     -2.6279584E-32
   4.320000     -2.3228396E-32
   4.330000     -1.9789675E-32
   4.340000     -1.5950819E-32
   4.350000     -1.1700312E-32
   4.360000     -7.0296516E-33
   4.370000     -1.9305658E-33
   4.380000      3.6041182E-33
   4.390000      9.5792570E-33
   4.400000      1.5997723E-32
   4.410000      2.2860353E-32
   4.420000      3.0165175E-32
   4.430000      3.7909472E-32
   4.440000      4.6088021E-32
   4.450000      5.4691673E-32
   4.460000      6.3709114E-32
   4.470000      7.3126352E-32
   4.480000      8.2926377E-32
   4.490000      9.3088990E-32
   4.500000      1.0358998E-31
   4.510000      1.1440191E-31
   4.520000      1.2549298E-31
   4.530000      1.3682904E-31
   4.540000      1.4837366E-31
   4.550000      1.6008459E-31
   4.560000      1.7191534E-31
   4.570000      1.8381520E-31
   4.580000      1.9572930E-31
   4.590000      2.0759881E-31
   4.600000      2.1936081E-31
   4.610000      2.3094747E-31
   4.620000      2.4228737E-31
   4.630000      2.5330544E-31
   4.640000      2.6391950E-31
   4.650000      2.7404446E-31
   4.660000      2.8359314E-31
   4.670000      2.9247310E-31
   4.680000      3.0058836E-31
   4.690000      3.0783898E-31
   4.700000      3.1412087E-31
   4.710000      3.1932746E-31
   4.720000      3.2334746E-31
   4.730000      3.2606716E-31
   4.740000      3.2737144E-31
   4.750000      3.2714170E-31
   4.760000      3.2525750E-31
   4.770000      3.2159692E-31
   4.780000      3.1603669E-31
   4.790000      3.0845289E-31
   4.800000      2.9872144E-31
   4.810000      2.8671847E-31
   4.820000      2.7232118E-31
   4.830000      2.5540833E-31
   4.840000      2.3586080E-31
   4.850000      2.1356236E-31
   4.860000      1.8840037E-31
   4.870000      1.6026671E-31
   4.880000      1.2905827E-31
   4.890000      9.4678035E-32
   4.900000      5.7035973E-32
   4.910000      1.6049631E-32
   4.920000     -2.8354825E-32
   4.930000     -7.6241271E-32
   4.940000     -1.2766376E-31
   4.950000     -1.8266460E-31
   4.960000     -2.4127297E-31
   4.970000     -3.0350564E-31
   4.980000     -3.6936339E-31
   4.990000     -4.3883151E-31
   5.000000     -5.1187941E-31
   5.010000     -5.8845807E-31
   5.020000     -6.6849950E-31
   5.030000     -7.5191540E-31
   5.040000     -8.3859617E-31
   5.050000     -9.2840967E-31
   5.060000     -1.0211998E-30
   5.070000     -1.1167859E-30
   5.080000     -1.2149610E-30
   5.090000     -1.3154909E-30
   5.100000     -1.4181134E-30
   5.110000     -1.5225363E-30
   5.120000     -1.6284375E-30
   5.130000     -1.7354632E-30
   5.140000     -1.8432271E-30
   5.150000     -1.9513095E-30
   5.160000     -2.0592575E-30
   5.170000     -2.1665828E-30
   5.180000     -2.2727632E-30
   5.190000     -2.3772385E-30
   5.200000     -2.4794121E-30
   5.210000     -2.5786541E-30
   5.220000     -2.6742967E-30
   5.230000     -2.7656360E-30
   5.240000     -2.8519321E-30
   5.250000     -2.9324098E-30
   5.260000     -3.0062591E-30
   5.270000     -3.0726347E-30
   5.280000     -3.1306595E-30
   5.290000     -3.1794233E-30
   5.300000     -3.2179852E-30
   5.310000     -3.2453751E-30
   5.320000     -3.2605956E-30
   5.330000     -3.2626228E-30
   5.340000     -3.2504112E-30
   5.350000     -3.2228929E-30
   5.360000     -3.1789825E-30
   5.370000     -3.1175786E-30
   5.380000     -3.0375690E-30
   5.390000     -2.9378323E-30
   5.400000     -2.8172428E-30
   5.410000     -2.6746747E-30
   5.420000     -2.5090060E-30
   5.430000     -2.3191251E-30
   5.440000     -2.1039342E-30
   5.450000     -1.8623562E-30
   5.460000     -1.5933399E-30
   5.470000     -1.2958669E-30
   5.480000     -9.6895811E-31
   5.490000     -6.1168203E-31
   5.500000     -2.2316100E-31
   5.510000      1.9742037E-31
   5.520000      6.5080685E-31
   5.530000      1.1376639E-30
   5.540000      1.6585699E-30
   5.550000      2.2140051E-30
   5.560000      2.8043430E-30
   5.570000      3.4298405E-30
   5.580000      4.0906278E-30
   5.590000      4.7866980E-30
   5.600000      5.5178984E-30
   5.610000      6.2839163E-30
   5.620000      7.0842715E-30
   5.630000      7.9183052E-30
   5.640000      8.7851656E-30
   5.650000      9.6838030E-30
   5.660000      1.0612951E-29
   5.670000      1.1571126E-29
   5.680000      1.2556605E-29
   5.690000      1.3567424E-29
   5.700000      1.4601361E-29
   5.710000      1.5655928E-29
   5.720000      1.6728364E-29
   5.730000      1.7815618E-29
   5.740000      1.8914346E-29
   5.750000      2.0020896E-29
   5.760000      2.1131300E-29
   5.770000      2.2241277E-29
   5.780000      2.3346210E-29
   5.790000      2.4441146E-29
   5.800000      2.5520796E-29
   5.810000      2.6579515E-29
   5.820000      2.7611317E-29
   5.830000      2.8609858E-29
   5.840000      2.9568438E-29
   5.850000      3.0480008E-29
   5.860000      3.1337170E-29
   5.870000      3.2132167E-29
   5.880000      3.2856910E-29
   5.890000      3.3502963E-29
   5.900000      3.4061570E-29
   5.910000      3.4523648E-29
   5.920000      3.4879828E-29
   5.930000      3.5120437E-29
   5.940000      3.5235541E-29
   5.950000      3.5214955E-29
   5.960000      3.5048260E-29
   5.970000      3.4724848E-29
   5.980000      3.4233928E-29
   5.990000      3.3564571E-29
   6.000000      3.2705736E-29
   6.010000      3.1646309E-29
   6.020000      3.0375153E-29
   6.030000      2.8881131E-29
   6.040000      2.7153163E-29
   6.050000      2.5180273E-29
   6.060000      2.2951647E-29
   6.070000      2.0456679E-29
   6.080000      1.7685029E-29
   6.090000      1.4626696E-29
   6.100000      1.1272076E-29
   6.110000      7.6120297E-30
   6.120000      3.6379587E-30
   6.130000     -6.5812999E-31
   6.140000     -5.2835293E-30
   6.150000     -1.0244753E-29
   6.160000     -1.5547461E-29
   6.170000     -2.1196365E-29
   6.180000     -2.7195145E-29
   6.190000     -3.3546338E-29
   6.200000     -4.0251265E-29
   6.210000     -4.7309924E-29
   6.220000     -5.4720882E-29
   6.230000     -6.2481188E-29
   6.240000     -7.0586259E-29
   6.250000     -7.9029795E-29
   6.260000     -8.7803646E-29
   6.270000     -9.6897736E-29
   6.280000     -1.0629996E-28
   6.290000     -1.1599608E-28
   6.300000     -1.2596959E-28
   6.310000     -1.3620166E-28
   6.320000     -1.4667102E-28
   6.330000     -1.5735388E-28
   6.340000     -1.6822383E-28
   6.350000     -1.7925175E-28
   6.360000     -1.9040575E-28
   6.370000     -2.0165106E-28
   6.380000     -2.1295003E-28
   6.390000     -2.2426193E-28
   6.400000     -2.3554304E-28
   6.410000     -2.4674656E-28
   6.420000     -2.5782253E-28
   6.430000     -2.6871786E-28
   6.440000     -2.7937617E-28
   6.450000     -2.8973806E-28
   6.460000     -2.9974081E-28
   6.470000     -3.0931863E-28
   6.480000     -3.1840249E-28
   6.490000     -3.2692037E-28
   6.500000     -3.3479716E-28
   6.510000     -3.4195481E-28
   6.520000     -3.4831247E-28
   6.530000     -3.5378647E-28
   6.540000     -3.5829062E-28
   6.550000     -3.6173623E-28
   6.560000     -3.6403234E-28
   6.570000     -3.6508592E-28
   6.580000     -3.6480204E-28
   6.590000     -3.6308421E-28
   6.600000     -3.5983456E-28
   6.610000     -3.5495421E-28
   6.620000     -3.4834338E-28
   6.630000     -3.3990203E-28
   6.640000     -3.2952998E-28
   6.650000     -3.1712743E-28
   6.660000     -3.0259537E-28
   6.670000     -2.8583591E-28
   6.680000     -2.6675285E-28
   6.690000     -2.4525218E-28
   6.700000     -2.2124245E-28
   6.710000     -1.9463558E-28
   6.720000     -1.6534710E-28
   6.730000     -1.3329699E-28
   6.740000     -9.8410193E-29
   6.750000     -6.0617146E-29
   6.760000     -1.9854648E-29
   6.770000      2.3933599E-29
   6.780000      7.0796282E-29
   6.790000      1.2077368E-28
   6.800000      1.7389709E-28
   6.810000      2.3018801E-28
   6.820000      2.8965731E-28
   6.830000      3.5230449E-28
   6.840000      4.1811698E-28
   6.850000      4.8706942E-28
   6.860000      5.5912264E-28
   6.870000      6.3422308E-28
   6.880000      7.1230187E-28
   6.890000      7.9327417E-28
   6.900000      8.7703845E-28
   6.910000      9.6347534E-28
   6.920000      1.0524474E-27
   6.930000      1.1437981E-27
   6.940000      1.2373513E-27
   6.950000      1.3329105E-27
   6.960000      1.4302580E-27
   6.970000      1.5291546E-27
   6.980000      1.6293390E-27
   6.990000      1.7305276E-27
   7.000000      1.8324128E-27
   7.010000      1.9346640E-27
   7.020000      2.0369275E-27
   7.030000      2.1388242E-27
   7.040000      2.2399515E-27
   7.050000      2.3398824E-27
   7.060000      2.4381651E-27