  -2.600000      0.0000000E+00
  -2.590000      0.0000000E+00
  -2.580000      0.0000000E+00
  -2.570000      0.0000000E+00
  -2.560000      0.0000000E+00
  -2.550000      0.0000000E+00
  -2.540000      0.0000000E+00
  -2.530000      0.0000000E+00
  -2.520000      0.0000000E+00
  -2.510000      0.0000000E+00
  -2.500000      0.0000000E+00
  -2.490000      0.0000000E+00
  -2.480000      0.0000000E+00
  -2.470000      0.0000000E+00
  -2.460000      0.0000000E+00
  -2.450000      0.0000000E+00
  -2.440000      0.0000000E+00
  -2.430000      0.0000000E+00
  -2.420000      0.0000000E+00
  -2.410000      0.0000000E+00
  -2.400000      0.0000000E+00
  -2.390000      0.0000000E+00
  -2.380000      0.0000000E+00
  -2.370000      0.0000000E+00
  -2.360000      0.0000000E+00
  -2.350000      0.0000000E+00
  -2.340000      0.0000000E+00
  -2.330000      0.0000000E+00
  -2.320000      0.0000000E+00
  -2.310000      0.0000000E+00
  -2.300000      0.0000000E+00
  -2.290000      0.0000000E+00
  -2.280000      0.0000000E+00
  -2.270000      0.0000000E+00
  -2.260000      0.0000000E+00
  -2.250000      0.0000000E+00
  -2.240000      0.0000000E+00
  -2.230000      0.0000000E+00
  -2.220000      0.0000000E+00
  -2.210000      0.0000000E+00
  -2.200000      0.0000000E+00
  -2.190000      0.0000000E+00
  -2.180000      0.0000000E+00
  -2.170000      0.0000000E+00
  -2.160000      0.0000000E+00
  -2.150000      0.0000000E+00
  -2.140000      0.0000000E+00
  -2.130000      0.0000000E+00
  -2.120000      0.0000000E+00
  -2.110000      0.0000000E+00
  -2.100000      0.0000000E+00
  -2.090000      0.0000000E+00
  -2.080000      0.0000000E+00
  -2.070000      0.0000000E+00
  -2.060000      0.0000000E+00
  -2.050000      0.0000000E+00
  -2.040000      0.0000000E+00
  -2.030000      0.0000000E+00
  -2.020000      0.0000000E+00
  -2.010000      0.0000000E+00
  -2.000000      0.0000000E+00
  -1.990000      0.0000000E+00
  -1.980000      0.0000000E+00
  -1.970000      0.0000000E+00
  -1.960000      0.0000000E+00
  -1.950000      0.0000000E+00
  -1.940000      0.0000000E+00
  -1.930000      0.0000000E+00
  -1.920000      0.0000000E+00
  -1.910000      0.0000000E+00
  -1.900000      0.0000000E+00
  -1.890000      0.0000000E+00
  -1.880000      0.0000000E+00
  -1.870000      0.0000000E+00
  -1.860000      0.0000000E+00
  -1.850000      0.0000000E+00
  -1.840000      0.0000000E+00
  -1.830000      0.0000000E+00
  -1.820000      0.0000000E+00
  -1.810000      0.0000000E+00
  -1.800000      0.0000000E+00
  -1.790000      0.0000000E+00
  -1.780000      0.0000000E+00
  -1.770000      0.0000000E+00
  -1.760000      0.0000000E+00
  -1.750000      0.0000000E+00
  -1.740000      0.0000000E+00
  -1.730000      0.0000000E+00
  -1.720000      0.0000000E+00
  -1.710000      0.0000000E+00
  -1.700000      0.0000000E+00
  -1.690000      0.0000000E+00
  -1.680000      0.0000000E+00
  -1.670000      0.0000000E+00
  -1.660000      0.0000000E+00
  -1.650000      0.0000000E+00
  -1.640000      0.0000000E+00
  -1.630000      0.0000000E+00
  -1.620000      0.0000000E+00
  -1.610000      0.0000000E+00
  -1.600000      0.0000000E+00
  -1.590000      0.0000000E+00
  -1.580000      0.0000000E+00
  -1.570000      0.0000000E+00
  -1.560000      0.0000000E+00
  -1.550000      0.0000000E+00
  -1.540000      0.0000000E+00
  -1.530000      0.0000000E+00
  -1.520000      0.0000000E+00
  -1.510000      0.0000000E+00
  -1.500000      0.0000000E+00
  -1.490000      0.0000000E+00
  -1.480000      0.0000000E+00
  -1.470000      0.0000000E+00
  -1.460000      0.0000000E+00
  -1.450000      0.0000000E+00
  -1.440000      0.0000000E+00
  -1.430000      0.0000000E+00
  -1.420000      0.0000000E+00
  -1.410000      0.0000000E+00
  -1.400000      0.0000000E+00
  -1.390000      0.0000000E+00
  -1.380000      0.0000000E+00
  -1.370000      0.0000000E+00
  -1.360000      0.0000000E+00
  -1.350000      0.0000000E+00
  -1.340000      0.0000000E+00
  -1.330000      0.0000000E+00
  -1.320000      0.0000000E+00
  -1.310000      0.0000000E+00
  -1.300000      0.0000000E+00
  -1.290000      0.0000000E+00
  -1.280000      0.0000000E+00
  -1.270000      0.0000000E+00
  -1.260000      0.0000000E+00
  -1.250000      0.0000000E+00
  -1.240000      0.0000000E+00
  -1.230000      0.0000000E+00
  -1.220000      0.0000000E+00
  -1.210000      0.0000000E+00
  -1.200000      0.0000000E+00
  -1.190000      0.0000000E+00
  -1.180000      0.0000000E+00
  -1.170000      0.0000000E+00
  -1.160000      0.0000000E+00
  -1.150000      0.0000000E+00
  -1.140000      0.0000000E+00
  -1.130000      0.0000000E+00
  -1.120000      0.0000000E+00
  -1.110000      0.0000000E+00
  -1.100000      0.0000000E+00
  -1.090000      0.0000000E+00
  -1.080000      0.0000000E+00
  -1.070000      0.0000000E+00
  -1.060000      0.0000000E+00
  -1.050000      0.0000000E+00
  -1.040000      0.0000000E+00
  -1.030000      0.0000000E+00
  -1.020000      0.0000000E+00
  -1.010000      0.0000000E+00
  -1.000000      0.0000000E+00
 -0.9900000      0.0000000E+00
 -0.9800000      0.0000000E+00
 -0.9700000      0.0000000E+00
 -0.9600000      0.0000000E+00
 -0.9500000      0.0000000E+00
 -0.9400000      0.0000000E+00
 -0.9300000      0.0000000E+00
 -0.9200000      0.0000000E+00
 -0.9100000      0.0000000E+00
 -0.9000000      0.0000000E+00
 -0.8900000      0.0000000E+00
 -0.8800000      0.0000000E+00
 -0.8700000      0.0000000E+00
 -0.8600000      0.0000000E+00
 -0.8500000      0.0000000E+00
 -0.8400000      0.0000000E+00
 -0.8300000      0.0000000E+00
 -0.8200000      0.0000000E+00
 -0.8100000      0.0000000E+00
 -0.8000000      0.0000000E+00
 -0.7900000      0.0000000E+00
 -0.7800000      0.0000000E+00
 -0.7700000      0.0000000E+00
 -0.7600000      0.0000000E+00
 -0.7500000      0.0000000E+00
 -0.7400000      0.0000000E+00
 -0.7300000      0.0000000E+00
 -0.7200000      0.0000000E+00
 -0.7100000      0.0000000E+00
 -0.7000000      0.0000000E+00
 -0.6900000      0.0000000E+00
 -0.6800000      0.0000000E+00
 -0.6700000      0.0000000E+00
 -0.6600000      0.0000000E+00
 -0.6500000      0.0000000E+00
 -0.6400000      0.0000000E+00
 -0.6300000      0.0000000E+00
 -0.6200000      0.0000000E+00
 -0.6100000      0.0000000E+00
 -0.6000000      0.0000000E+00
 -0.5900000      0.0000000E+00
 -0.5800000      0.0000000E+00
 -0.5700000      0.0000000E+00
 -0.5600000      0.0000000E+00
 -0.5500000      0.0000000E+00
 -0.5400000      0.0000000E+00
 -0.5300000      0.0000000E+00
 -0.5200000      0.0000000E+00
 -0.5100000      0.0000000E+00
 -0.5000000      0.0000000E+00
 -0.4900000      0.0000000E+00
 -0.4800000      0.0000000E+00
 -0.4700000      0.0000000E+00
 -0.4600000      0.0000000E+00
 -0.4500000      0.0000000E+00
 -0.4400000      0.0000000E+00
 -0.4300000      0.0000000E+00
 -0.4200000      0.0000000E+00
 -0.4100000      0.0000000E+00
 -0.4000000      0.0000000E+00
 -0.3900000      0.0000000E+00
 -0.3800000      0.0000000E+00
 -0.3700000      0.0000000E+00
 -0.3600000      0.0000000E+00
 -0.3500000      0.0000000E+00
 -0.3400000      0.0000000E+00
 -0.3300000      0.0000000E+00
 -0.3200000      0.0000000E+00
 -0.3100000      0.0000000E+00
 -0.3000000      0.0000000E+00
 -0.2900000      0.0000000E+00
 -0.2800000      0.0000000E+00
 -0.2700000      0.0000000E+00
 -0.2600000      0.0000000E+00
 -0.2500000      0.0000000E+00
 -0.2400000      0.0000000E+00
 -0.2300000      0.0000000E+00
 -0.2200000      0.0000000E+00
 -0.2100000      0.0000000E+00
 -0.2000000      0.0000000E+00
 -0.1900000      0.0000000E+00
 -0.1800000      0.0000000E+00
 -0.1700000      0.0000000E+00
 -0.1600000      0.0000000E+00
 -0.1500000      0.0000000E+00
 -0.1400000      0.0000000E+00
 -0.1300000      0.0000000E+00
 -0.1200000      0.0000000E+00
 -0.1100000      0.0000000E+00
 -0.1000000      0.0000000E+00
 -9.0000004E-02  0.0000000E+00
 -7.9999998E-02  0.0000000E+00
 -7.0000000E-02  0.0000000E+00
 -5.9999999E-02  0.0000000E+00
 -5.0000001E-02  0.0000000E+00
 -3.9999999E-02  0.0000000E+00
 -2.9999999E-02  0.0000000E+00
 -2.0000000E-02  0.0000000E+00
 -9.9999998E-03  0.0000000E+00
 -3.4694470E-17  0.0000000E+00
  9.9999998E-03  0.0000000E+00
  2.0000000E-02  0.0000000E+00
  2.9999999E-02  0.0000000E+00
  3.9999999E-02  0.0000000E+00
  5.0000001E-02  0.0000000E+00
  5.9999999E-02  0.0000000E+00
  7.0000000E-02  0.0000000E+00
  7.9999998E-02  0.0000000E+00
  9.0000004E-02  0.0000000E+00
  0.1000000      0.0000000E+00
  0.1100000      0.0000000E+00
  0.1200000      0.0000000E+00
  0.1300000      0.0000000E+00
  0.1400000      0.0000000E+00
  0.1500000      0.0000000E+00
  0.1600000      0.0000000E+00
  0.1700000      0.0000000E+00
  0.1800000      0.0000000E+00
  0.1900000      0.0000000E+00
  0.2000000      0.0000000E+00
  0.2100000      0.0000000E+00
  0.2200000      0.0000000E+00
  0.2300000      0.0000000E+00
  0.2400000      0.0000000E+00
  0.2500000      0.0000000E+00
  0.2600000      0.0000000E+00
  0.2700000      0.0000000E+00
  0.2800000      0.0000000E+00
  0.2900000      0.0000000E+00
  0.3000000      0.0000000E+00
  0.3100000      0.0000000E+00
  0.3200000      0.0000000E+00
  0.3300000      0.0000000E+00
  0.3400000      0.0000000E+00
  0.3500000      0.0000000E+00
  0.3600000      0.0000000E+00
  0.3700000      0.0000000E+00
  0.3800000      0.0000000E+00
  0.3900000      0.0000000E+00
  0.4000000      0.0000000E+00
  0.4100000      0.0000000E+00
  0.4200000      0.0000000E+00
  0.4300000      0.0000000E+00
  0.4400000      0.0000000E+00
  0.4500000      0.0000000E+00
  0.4600000      0.0000000E+00
  0.4700000      0.0000000E+00
  0.4800000      0.0000000E+00
  0.4900000      0.0000000E+00
  0.5000000      0.0000000E+00
  0.5100000      0.0000000E+00
  0.5200000      0.0000000E+00
  0.5300000      0.0000000E+00
  0.5400000      0.0000000E+00
  0.5500000      0.0000000E+00
  0.5600000      0.0000000E+00
  0.5700000      0.0000000E+00
  0.5800000      0.0000000E+00
  0.5900000      0.0000000E+00
  0.6000000      0.0000000E+00
  0.6100000      0.0000000E+00
  0.6200000      0.0000000E+00
  0.6300000      0.0000000E+00
  0.6400000      0.0000000E+00
  0.6500000      0.0000000E+00
  0.6600000      0.0000000E+00
  0.6700000      0.0000000E+00
  0.6800000      0.0000000E+00
  0.6900000      0.0000000E+00
  0.7000000      0.0000000E+00
  0.7100000      0.0000000E+00
  0.7200000      0.0000000E+00
  0.7300000      0.0000000E+00
  0.7400000      0.0000000E+00
  0.7500000      0.0000000E+00
  0.7600000      0.0000000E+00
  0.7700000      0.0000000E+00
  0.7800000      0.0000000E+00
  0.7900000      0.0000000E+00
  0.8000000      0.0000000E+00
  0.8100000      0.0000000E+00
  0.8200000      0.0000000E+00
  0.8300000      0.0000000E+00
  0.8400000      0.0000000E+00
  0.8500000      0.0000000E+00
  0.8600000      0.0000000E+00
  0.8700000      0.0000000E+00
  0.8800000      0.0000000E+00
  0.8900000      0.0000000E+00
  0.9000000      0.0000000E+00
  0.9100000      0.0000000E+00
  0.9200000      0.0000000E+00
  0.9300000      0.0000000E+00
  0.9400000      0.0000000E+00
  0.9500000      0.0000000E+00
  0.9600000      0.0000000E+00
  0.9700000      0.0000000E+00
  0.9800000      0.0000000E+00
  0.9900000      0.0000000E+00
   1.000000      0.0000000E+00
   1.010000      0.0000000E+00
   1.020000      0.0000000E+00
   1.030000      0.0000000E+00
   1.040000      0.0000000E+00
   1.050000      0.0000000E+00
   1.060000      0.0000000E+00
   1.070000      0.0000000E+00
   1.080000      0.0000000E+00
   1.090000      0.0000000E+00
   1.100000      0.0000000E+00
   1.110000      0.0000000E+00
   1.120000      0.0000000E+00
   1.130000      0.0000000E+00
   1.140000      0.0000000E+00
   1.150000      0.0000000E+00
   1.160000      0.0000000E+00
   1.170000      0.0000000E+00
   1.180000      0.0000000E+00
   1.190000      0.0000000E+00
   1.200000      0.0000000E+00
   1.210000      0.0000000E+00
   1.220000      0.0000000E+00
   1.230000      0.0000000E+00
   1.240000      0.0000000E+00
   1.250000      0.0000000E+00
   1.260000      0.0000000E+00
   1.270000      0.0000000E+00
   1.280000      0.0000000E+00
   1.290000      0.0000000E+00
   1.300000      0.0000000E+00
   1.310000      0.0000000E+00
   1.320000      0.0000000E+00
   1.330000      0.0000000E+00
   1.340000      0.0000000E+00
   1.350000      0.0000000E+00
   1.360000      0.0000000E+00
   1.370000      0.0000000E+00
   1.380000      0.0000000E+00
   1.390000      0.0000000E+00
   1.400000      0.0000000E+00
   1.410000      0.0000000E+00
   1.420000      0.0000000E+00
   1.430000      0.0000000E+00
   1.440000      0.0000000E+00
   1.450000      0.0000000E+00
   1.460000      0.0000000E+00
   1.470000      0.0000000E+00
   1.480000      0.0000000E+00
   1.490000      0.0000000E+00
   1.500000      0.0000000E+00
   1.510000      0.0000000E+00
   1.520000      0.0000000E+00
   1.530000      0.0000000E+00
   1.540000      0.0000000E+00
   1.550000      0.0000000E+00
   1.560000      0.0000000E+00
   1.570000      0.0000000E+00
   1.580000      0.0000000E+00
   1.590000      0.0000000E+00
   1.600000      0.0000000E+00
   1.610000      0.0000000E+00
   1.620000      0.0000000E+00
   1.630000      0.0000000E+00
   1.640000      0.0000000E+00
   1.650000      0.0000000E+00
   1.660000      0.0000000E+00
   1.670000      0.0000000E+00
   1.680000      0.0000000E+00
   1.690000      0.0000000E+00
   1.700000      0.0000000E+00
   1.710000      0.0000000E+00
   1.720000      0.0000000E+00
   1.730000      0.0000000E+00
   1.740000      0.0000000E+00
   1.750000      0.0000000E+00
   1.760000      0.0000000E+00
   1.770000      0.0000000E+00
   1.780000      0.0000000E+00
   1.790000      0.0000000E+00
   1.800000      0.0000000E+00
   1.810000      0.0000000E+00
   1.820000      0.0000000E+00
   1.830000      0.0000000E+00
   1.840000      0.0000000E+00
   1.850000      0.0000000E+00
   1.860000      0.0000000E+00
   1.870000      0.0000000E+00
   1.880000      0.0000000E+00
   1.890000      0.0000000E+00
   1.900000      0.0000000E+00
   1.910000      0.0000000E+00
   1.920000      0.0000000E+00
   1.930000      0.0000000E+00
   1.940000      0.0000000E+00
   1.950000      0.0000000E+00
   1.960000      0.0000000E+00
   1.970000      0.0000000E+00
   1.980000      0.0000000E+00
   1.990000      0.0000000E+00
   2.000000      0.0000000E+00
   2.010000      0.0000000E+00
   2.020000      0.0000000E+00
   2.030000      0.0000000E+00
   2.040000      0.0000000E+00
   2.050000      0.0000000E+00
   2.060000      0.0000000E+00
   2.070000      0.0000000E+00
   2.080000      0.0000000E+00
   2.090000      0.0000000E+00
   2.100000      0.0000000E+00
   2.110000      0.0000000E+00
   2.120000      0.0000000E+00
   2.130000      0.0000000E+00
   2.140000      0.0000000E+00
   2.150000      0.0000000E+00
   2.160000      0.0000000E+00
   2.170000      0.0000000E+00
   2.180000      0.0000000E+00
   2.190000      0.0000000E+00
   2.200000      0.0000000E+00
   2.210000      0.0000000E+00
   2.220000      0.0000000E+00
   2.230000      0.0000000E+00
   2.240000      0.0000000E+00
   2.250000      0.0000000E+00
   2.260000      0.0000000E+00
   2.270000      0.0000000E+00
   2.280000      0.0000000E+00
   2.290000      0.0000000E+00
   2.300000      0.0000000E+00
   2.310000      0.0000000E+00
   2.320000      0.0000000E+00
   2.330000      0.0000000E+00
   2.340000      0.0000000E+00
   2.350000      0.0000000E+00
   2.360000      0.0000000E+00
   2.370000      0.0000000E+00
   2.380000      0.0000000E+00
   2.390000      0.0000000E+00
   2.400000      0.0000000E+00
   2.410000      0.0000000E+00
   2.420000      0.0000000E+00
   2.430000      0.0000000E+00
   2.440000      0.0000000E+00
   2.450000      0.0000000E+00
   2.460000      0.0000000E+00
   2.470000      0.0000000E+00
   2.480000      0.0000000E+00
   2.490000      0.0000000E+00
   2.500000      0.0000000E+00
   2.510000      0.0000000E+00
   2.520000      0.0000000E+00
   2.530000      0.0000000E+00
   2.540000      0.0000000E+00
   2.550000      0.0000000E+00
   2.560000      0.0000000E+00
   2.570000      0.0000000E+00
   2.580000      0.0000000E+00
   2.590000      0.0000000E+00
   2.600000      0.0000000E+00
   2.610000      0.0000000E+00
   2.620000      0.0000000E+00
   2.630000      0.0000000E+00
   2.640000      0.0000000E+00
   2.650000      0.0000000E+00
   2.660000      0.0000000E+00
   2.670000      0.0000000E+00
   2.680000      0.0000000E+00
   2.690000      0.0000000E+00
   2.700000      0.0000000E+00
   2.710000      0.0000000E+00
   2.720000      0.0000000E+00
   2.730000      0.0000000E+00
   2.740000      0.0000000E+00
   2.750000      0.0000000E+00
   2.760000      0.0000000E+00
   2.770000      0.0000000E+00
   2.780000      0.0000000E+00
   2.790000      0.0000000E+00
   2.800000      0.0000000E+00
   2.810000      0.0000000E+00
   2.820000      0.0000000E+00
   2.830000      0.0000000E+00
   2.840000      0.0000000E+00
   2.850000      0.0000000E+00
   2.860000      0.0000000E+00
   2.870000      0.0000000E+00
   2.880000      0.0000000E+00
   2.890000      0.0000000E+00
   2.900000      0.0000000E+00
   2.910000      0.0000000E+00
   2.920000      0.0000000E+00
   2.930000      0.0000000E+00
   2.940000      0.0000000E+00
   2.950000      0.0000000E+00
   2.960000      0.0000000E+00
   2.970000      0.0000000E+00
   2.980000      0.0000000E+00
   2.990000      0.0000000E+00
   3.000000      0.0000000E+00
   3.010000      0.0000000E+00
   3.020000      0.0000000E+00
   3.030000      0.0000000E+00
   3.040000      0.0000000E+00
   3.050000      0.0000000E+00
   3.060000      0.0000000E+00
   3.070000      0.0000000E+00
   3.080000      0.0000000E+00
   3.090000      0.0000000E+00
   3.100000      0.0000000E+00
   3.110000      0.0000000E+00
   3.120000      0.0000000E+00
   3.130000      0.0000000E+00
   3.140000      0.0000000E+00
   3.150000      0.0000000E+00
   3.160000      0.0000000E+00
   3.170000      0.0000000E+00
   3.180000      0.0000000E+00
   3.190000      0.0000000E+00
   3.200000      0.0000000E+00
   3.210000      0.0000000E+00
   3.220000      1.2704933E-38
   3.230000      1.6156639E-38
   3.240000      1.9245607E-38
   3.250000      2.1999123E-38
   3.260000      2.4606543E-38
   3.270000      2.7437018E-38
   3.280000      3.0297404E-38
   3.290000      3.2871836E-38
   3.300000      3.5095596E-38
   3.310000      3.7015801E-38
   3.320000      3.9006813E-38
   3.330000      4.0696754E-38
   3.340000      4.2125324E-38
   3.350000      4.3467295E-38
   3.360000      4.4954361E-38
   3.370000      4.6914489E-38
   3.380000      4.9900547E-38
   3.390000      5.3612625E-38
   3.400000      5.7113803E-38
   3.410000      6.0618322E-38
   3.420000      6.4583817E-38
   3.430000      6.8153816E-38
   3.440000      7.1737642E-38
   3.450000      7.5154854E-38
   3.460000      7.7629721E-38
   3.470000      7.9566943E-38
   3.480000      7.9987585E-38
   3.490000      7.8324047E-38
   3.500000      7.6100747E-38
   3.510000      7.3680548E-38
   3.520000      7.0043444E-38
   3.530000      6.4645760E-38
   3.540000      5.6770530E-38
   3.550000      4.6320411E-38
   3.560000      3.3564218E-38
   3.570000      1.8316602E-38
   3.580000      0.0000000E+00
   3.590000     -1.8671886E-38
   3.600000     -3.9895189E-38
   3.610000     -6.0818556E-38
   3.620000     -7.9943040E-38
   3.630000     -1.0090967E-37
   3.640000     -1.2374468E-37
   3.650000     -1.4798527E-37
   3.660000     -1.7514881E-37
   3.670000     -2.0477491E-37
   3.680000     -2.3620419E-37
   3.690000     -2.7039489E-37
   3.700000     -3.0981476E-37
   3.710000     -3.4571100E-37
   3.720000     -3.7513672E-37
   3.730000     -4.2187649E-37
   3.740000     -4.8806338E-37
   3.750000     -5.5899728E-37
   3.760000     -6.2476253E-37
   3.770000     -6.7941519E-37
   3.780000     -7.3975196E-37
   3.790000     -7.8967603E-37
   3.800000     -8.2236552E-37
   3.810000     -8.5960015E-37
   3.820000     -9.0012176E-37
   3.830000     -9.4415213E-37
   3.840000     -9.8758709E-37
   3.850000     -1.0233854E-36
   3.860000     -1.0445033E-36
   3.870000     -1.0496465E-36
   3.880000     -1.0227866E-36
   3.890000     -9.6627497E-37
   3.900000     -9.0302157E-37
   3.910000     -8.5285607E-37
   3.920000     -8.1898124E-37
   3.930000     -8.0131430E-37
   3.940000     -8.1160077E-37
   3.950000     -8.2909203E-37
   3.960000     -8.3961481E-37
   3.970000     -8.4432865E-37
   3.980000     -8.3997534E-37
   3.990000     -8.3392361E-37
   4.000000     -8.1640267E-37
   4.010000     -7.7379441E-37
   4.020000     -7.0183345E-37
   4.030000     -5.5267906E-37
   4.040000     -3.3512201E-37
   4.050000     -7.3789513E-38
   4.060000      2.5161717E-37
   4.070000      6.3313095E-37
   4.080000      1.0633303E-36
   4.090000      1.5163673E-36
   4.100000      1.9927063E-36
   4.110000      2.4800791E-36
   4.120000      2.9592231E-36
   4.130000      3.4210032E-36
   4.140000      3.8701605E-36
   4.150000      4.3000927E-36
   4.160000      4.7149284E-36
   4.170000      5.1206013E-36
   4.180000      5.4851132E-36
   4.190000      5.8142818E-36
   4.200000      6.1976849E-36
   4.210000      6.6373631E-36
   4.220000      7.1388366E-36
   4.230000      7.7353490E-36
   4.240000      8.3098676E-36
   4.250000      8.8632683E-36
   4.260000      9.4520680E-36
   4.270000      1.0040922E-35
   4.280000      1.0566231E-35
   4.290000      1.1017391E-35
   4.300000      1.1386617E-35
   4.310000      1.1654223E-35
   4.320000      1.1829972E-35
   4.330000      1.1915719E-35
   4.340000      1.1869095E-35
   4.350000      1.1597838E-35
   4.360000      1.1177780E-35
   4.370000      1.0662057E-35
   4.380000      1.0042686E-35
   4.390000      9.3752641E-36
   4.400000      8.6283316E-36
   4.410000      7.8174485E-36
   4.420000      7.0982604E-36
   4.430000      6.3981726E-36
   4.440000      5.5755335E-36
   4.450000      4.4509881E-36
   4.460000      2.9433601E-36
   4.470000      1.2941565E-36
   4.480000     -5.2452314E-37
   4.490000     -2.6886648E-36
   4.500000     -5.1486502E-36
   4.510000     -8.0369626E-36
   4.520000     -1.1534010E-35
   4.530000     -1.5452665E-35
   4.540000     -1.9296651E-35
   4.550000     -2.2755256E-35
   4.560000     -2.5800947E-35
   4.570000     -2.8572801E-35
   4.580000     -3.1385593E-35
   4.590000     -3.4450861E-35
   4.600000     -3.7910267E-35
   4.610000     -4.1538486E-35
   4.620000     -4.5110511E-35
   4.630000     -4.8801199E-35
   4.640000     -5.2743387E-35
   4.650000     -5.6816722E-35
   4.660000     -6.0807645E-35
   4.670000     -6.4930732E-35
   4.680000     -6.9063519E-35
   4.690000     -7.2899476E-35
   4.700000     -7.6469018E-35
   4.710000     -7.9734735E-35
   4.720000     -8.2693336E-35
   4.730000     -8.5383507E-35
   4.740000     -8.7746337E-35
   4.750000     -8.9723997E-35
   4.760000     -9.1185467E-35
   4.770000     -9.1927223E-35
   4.780000     -9.1556666E-35
   4.790000     -9.0312106E-35
   4.800000     -8.8460697E-35
   4.810000     -9.1466593E-35
   4.820000     -9.9977046E-35
   4.830000     -1.0595295E-34
   4.840000     -1.0929960E-34
   4.850000     -1.1245296E-34
   4.860000     -1.1533293E-34
   4.870000     -1.1802815E-34
   4.880000     -1.1900316E-34
   4.890000     -1.1125434E-34
   4.900000     -9.5610756E-35
   4.910000     -7.6246805E-35
   4.920000     -5.2486953E-35
   4.930000     -2.6616188E-35
   4.940000     -6.4926216E-37
   4.950000      2.4072826E-35
   4.960000      4.8697861E-35
   4.970000      7.4748457E-35
   4.980000      1.0178547E-34
   4.990000      1.2919798E-34
   5.000000      1.5527318E-34
   5.010000      1.8306266E-34
   5.020000      2.1592052E-34
   5.030000      2.5165018E-34
   5.040000      2.8961880E-34
   5.050000      3.2945374E-34
   5.060000      3.7071664E-34
   5.070000      4.1348000E-34
   5.080000      4.5648826E-34
   5.090000      4.9931680E-34
   5.100000      5.4560547E-34
   5.110000      5.9228665E-34
   5.120000      6.3438666E-34
   5.130000      6.7326724E-34
   5.140000      7.0939390E-34
   5.150000      7.4141670E-34
   5.160000      7.7223945E-34
   5.170000      8.0402344E-34
   5.180000      8.3419388E-34
   5.190000      8.5651652E-34
   5.200000      8.7664392E-34
   5.210000      9.0155164E-34
   5.220000      9.2677536E-34
   5.230000      9.5187189E-34
   5.240000      9.7161340E-34
   5.250000      9.8540736E-34
   5.260000      9.9746996E-34
   5.270000      1.0091833E-33
   5.280000      1.0188154E-33
   5.290000      1.0229818E-33
   5.300000      1.0224781E-33
   5.310000      1.0166756E-33
   5.320000      1.0056780E-33
   5.330000      9.8848707E-34
   5.340000      9.6055604E-34
   5.350000      9.2255882E-34
   5.360000      8.7524270E-34
   5.370000      8.1620175E-34
   5.380000      7.4325654E-34
   5.390000      6.5661659E-34
   5.400000      5.5670407E-34
   5.410000      4.4051655E-34
   5.420000      3.1050686E-34
   5.430000      1.7005575E-34
   5.440000      1.4755955E-35
   5.450000     -1.5917965E-34
   5.460000     -3.5094129E-34
   5.470000     -5.5933355E-34
   5.480000     -7.8408439E-34
   5.490000     -1.0247879E-33
   5.500000     -1.2806327E-33
   5.510000     -1.5510117E-33
   5.520000     -1.8353307E-33
   5.530000     -2.1315369E-33
   5.540000     -2.4400735E-33
   5.550000     -2.7627197E-33
   5.560000     -3.0972627E-33
   5.570000     -3.4404512E-33
   5.580000     -3.7925037E-33
   5.590000     -4.1551705E-33
   5.600000     -4.5277728E-33
   5.610000     -4.9091260E-33
   5.620000     -5.2986201E-33
   5.630000     -5.6949509E-33
   5.640000     -6.0965670E-33
   5.650000     -6.5021126E-33
   5.660000     -6.9100752E-33
   5.670000     -7.3189210E-33
   5.680000     -7.7298510E-33
   5.690000     -8.1419426E-33
   5.700000     -8.5516399E-33
   5.710000     -8.9552811E-33
   5.720000     -9.3504353E-33
   5.730000     -9.7351151E-33
   5.740000     -1.0104762E-32
   5.750000     -1.0454909E-32
   5.760000     -1.0781797E-32
   5.770000     -1.1082060E-32
   5.780000     -1.1351234E-32
   5.790000     -1.1584724E-32
   5.800000     -1.1777832E-32
   5.810000     -1.1925433E-32
   5.820000     -1.2021455E-32
   5.830000     -1.2061822E-32
   5.840000     -1.2042604E-32
   5.850000     -1.1957756E-32
   5.860000     -1.1801430E-32
   5.870000     -1.1568904E-32
   5.880000     -1.1255659E-32
   5.890000     -1.0855981E-32
   5.900000     -1.0364655E-32
   5.910000     -9.7771074E-33
   5.920000     -9.0886880E-33
   5.930000     -8.2946636E-33
   5.940000     -7.3904586E-33
   5.950000     -6.3717568E-33
   5.960000     -5.2360864E-33
   5.970000     -3.9775507E-33
   5.980000     -2.5903871E-33
   5.990000     -1.0725064E-33
   6.000000      5.7960894E-34
   6.010000      2.3695002E-33
   6.020000      4.3005031E-33
   6.030000      6.3754560E-33
   6.040000      8.5970066E-33
   6.050000      1.0967441E-32
   6.060000      1.3488636E-32
   6.070000      1.6162001E-32
   6.080000      1.8988392E-32
   6.090000      2.1968063E-32
   6.100000      2.5102388E-32
   6.110000      2.8388009E-32
   6.120000      3.1821302E-32
   6.130000      3.5401329E-32
   6.140000      3.9123882E-32
   6.150000      4.2983779E-32
   6.160000      4.6974894E-32
   6.170000      5.1089988E-32
   6.180000      5.5320210E-32
   6.190000      5.9655498E-32
   6.200000      6.4084349E-32
   6.210000      6.8593804E-32
   6.220000      7.3169386E-32
   6.230000      7.7795057E-32
   6.240000      8.2452853E-32
   6.250000      8.7124509E-32
   6.260000      9.1789023E-32
   6.270000      9.6422980E-32
   6.280000      1.0100287E-31
   6.290000      1.0550295E-31
   6.300000      1.0989590E-31
   6.310000      1.1415277E-31
   6.320000      1.1824293E-31
   6.330000      1.2213438E-31
   6.340000      1.2579319E-31
   6.350000      1.2918381E-31
   6.360000      1.3226948E-31
   6.370000      1.3501167E-31
   6.380000      1.3737034E-31
   6.390000      1.3930378E-31
   6.400000      1.4076910E-31
   6.410000      1.4172192E-31
   6.420000      1.4211621E-31
   6.430000      1.4190470E-31
   6.440000      1.4103889E-31
   6.450000      1.3946908E-31
   6.460000      1.3714453E-31
   6.470000      1.3401350E-31
   6.480000      1.3002350E-31
   6.490000      1.2512137E-31
   6.500000      1.1925351E-31
   6.510000      1.1236608E-31
   6.520000      1.0440522E-31
   6.530000      9.5317305E-32
   6.540000      8.5049203E-32
   6.550000      7.3548577E-32
   6.560000      6.0764230E-32
   6.570000      4.6646402E-32
   6.580000      3.1147153E-32
   6.590000      1.4220735E-32
   6.600000     -4.1760329E-33
   6.610000     -2.4083345E-32
   6.620000     -4.5537990E-32
   6.630000     -6.8572892E-32
   6.640000     -9.3216673E-32
   6.650000     -1.1949322E-31
   6.660000     -1.4742117E-31
   6.670000     -1.7701350E-31
   6.680000     -2.0827698E-31
   6.690000     -2.4121175E-31
   6.700000     -2.7581075E-31
   6.710000     -3.1205933E-31
   6.720000     -3.4993463E-31
   6.730000     -3.8940514E-31
   6.740000     -4.3043020E-31
   6.750000     -4.7295945E-31
   6.760000     -5.1693229E-31
   6.770000     -5.6227736E-31
   6.780000     -6.0891214E-31
   6.790000     -6.5674221E-31
   6.800000     -7.0566097E-31
   6.810000     -7.5554890E-31
   6.820000     -8.0627317E-31
   6.830000     -8.5768704E-31
   6.840000     -9.0962978E-31
   6.850000     -9.6192555E-31
   6.860000     -1.0143833E-30
   6.870000     -1.0667965E-30
   6.880000     -1.1189425E-30
   6.890000     -1.1705826E-30
   6.900000     -1.2214608E-30
   6.910000     -1.2713049E-30
   6.920000     -1.3198249E-30
   6.930000     -1.3667142E-30
   6.940000     -1.4116483E-30
   6.950000     -1.4542856E-30
   6.960000     -1.4942673E-30
   6.970000     -1.5312176E-30
   6.980000     -1.5647433E-30
   6.990000     -1.5944351E-30
   7.000000     -1.6198673E-30
   7.010000     -1.6405985E-30
   7.020000     -1.6561728E-30
   7.030000     -1.6661194E-30
   7.040000     -1.6699550E-30
   7.050000     -1.6671833E-30
   7.060000     -1.6572968E-30