  -2.600000      0.0000000E+00
  -2.590000      0.0000000E+00
  -2.580000      0.0000000E+00
  -2.570000      0.0000000E+00
  -2.560000      0.0000000E+00
  -2.550000      0.0000000E+00
  -2.540000      0.0000000E+00
  -2.530000      0.0000000E+00
  -2.520000      0.0000000E+00
  -2.510000      0.0000000E+00
  -2.500000      0.0000000E+00
  -2.490000      0.0000000E+00
  -2.480000      0.0000000E+00
  -2.470000      0.0000000E+00
  -2.460000      0.0000000E+00
  -2.450000      0.0000000E+00
  -2.440000      0.0000000E+00
  -2.430000      0.0000000E+00
  -2.420000      0.0000000E+00
  -2.410000      0.0000000E+00
  -2.400000      0.0000000E+00
  -2.390000      0.0000000E+00
  -2.380000      0.0000000E+00
  -2.370000      0.0000000E+00
  -2.360000      0.0000000E+00
  -2.350000      0.0000000E+00
  -2.340000      0.0000000E+00
  -2.330000      0.0000000E+00
  -2.320000      0.0000000E+00
  -2.310000      0.0000000E+00
  -2.300000      0.0000000E+00
  -2.290000      0.0000000E+00
  -2.280000      0.0000000E+00
  -2.270000      0.0000000E+00
  -2.260000      0.0000000E+00
  -2.250000      0.0000000E+00
  -2.240000      0.0000000E+00
  -2.230000      0.0000000E+00
  -2.220000      0.0000000E+00
  -2.210000      0.0000000E+00
  -2.200000      0.0000000E+00
  -2.190000      0.0000000E+00
  -2.180000      0.0000000E+00
  -2.170000      0.0000000E+00
  -2.160000      0.0000000E+00
  -2.150000      0.0000000E+00
  -2.140000      0.0000000E+00
  -2.130000      0.0000000E+00
  -2.120000      0.0000000E+00
  -2.110000      0.0000000E+00
  -2.100000      0.0000000E+00
  -2.090000      0.0000000E+00
  -2.080000      0.0000000E+00
  -2.070000      0.0000000E+00
  -2.060000      0.0000000E+00
  -2.050000      0.0000000E+00
  -2.040000      0.0000000E+00
  -2.030000      0.0000000E+00
  -2.020000      0.0000000E+00
  -2.010000      0.0000000E+00
  -2.000000      0.0000000E+00
  -1.990000      0.0000000E+00
  -1.980000      0.0000000E+00
  -1.970000      0.0000000E+00
  -1.960000      0.0000000E+00
  -1.950000      0.0000000E+00
  -1.940000      0.0000000E+00
  -1.930000      0.0000000E+00
  -1.920000      0.0000000E+00
  -1.910000      0.0000000E+00
  -1.900000      0.0000000E+00
  -1.890000      0.0000000E+00
  -1.880000      0.0000000E+00
  -1.870000      0.0000000E+00
  -1.860000      0.0000000E+00
  -1.850000      0.0000000E+00
  -1.840000      0.0000000E+00
  -1.830000      0.0000000E+00
  -1.820000      0.0000000E+00
  -1.810000      0.0000000E+00
  -1.800000      0.0000000E+00
  -1.790000      0.0000000E+00
  -1.780000      0.0000000E+00
  -1.770000      0.0000000E+00
  -1.760000      0.0000000E+00
  -1.750000      0.0000000E+00
  -1.740000      0.0000000E+00
  -1.730000      0.0000000E+00
  -1.720000      0.0000000E+00
  -1.710000      0.0000000E+00
  -1.700000      0.0000000E+00
  -1.690000      0.0000000E+00
  -1.680000      0.0000000E+00
  -1.670000      0.0000000E+00
  -1.660000      0.0000000E+00
  -1.650000      0.0000000E+00
  -1.640000      0.0000000E+00
  -1.630000      0.0000000E+00
  -1.620000      0.0000000E+00
  -1.610000      0.0000000E+00
  -1.600000      0.0000000E+00
  -1.590000      0.0000000E+00
  -1.580000      0.0000000E+00
  -1.570000      0.0000000E+00
  -1.560000      0.0000000E+00
  -1.550000      0.0000000E+00
  -1.540000      0.0000000E+00
  -1.530000      0.0000000E+00
  -1.520000      0.0000000E+00
  -1.510000      0.0000000E+00
  -1.500000      0.0000000E+00
  -1.490000      0.0000000E+00
  -1.480000      0.0000000E+00
  -1.470000      0.0000000E+00
  -1.460000      0.0000000E+00
  -1.450000      0.0000000E+00
  -1.440000      0.0000000E+00
  -1.430000      0.0000000E+00
  -1.420000      0.0000000E+00
  -1.410000      0.0000000E+00
  -1.400000      0.0000000E+00
  -1.390000      0.0000000E+00
  -1.380000      0.0000000E+00
  -1.370000      0.0000000E+00
  -1.360000      0.0000000E+00
  -1.350000      0.0000000E+00
  -1.340000      0.0000000E+00
  -1.330000      0.0000000E+00
  -1.320000      0.0000000E+00
  -1.310000      0.0000000E+00
  -1.300000      0.0000000E+00
  -1.290000      0.0000000E+00
  -1.280000      0.0000000E+00
  -1.270000      0.0000000E+00
  -1.260000      0.0000000E+00
  -1.250000      0.0000000E+00
  -1.240000      0.0000000E+00
  -1.230000      0.0000000E+00
  -1.220000      0.0000000E+00
  -1.210000      0.0000000E+00
  -1.200000      0.0000000E+00
  -1.190000      0.0000000E+00
  -1.180000      0.0000000E+00
  -1.170000      0.0000000E+00
  -1.160000      0.0000000E+00
  -1.150000      0.0000000E+00
  -1.140000      0.0000000E+00
  -1.130000      0.0000000E+00
  -1.120000      0.0000000E+00
  -1.110000      0.0000000E+00
  -1.100000      0.0000000E+00
  -1.090000      0.0000000E+00
  -1.080000      0.0000000E+00
  -1.070000      0.0000000E+00
  -1.060000      0.0000000E+00
  -1.050000      0.0000000E+00
  -1.040000      0.0000000E+00
  -1.030000      0.0000000E+00
  -1.020000      0.0000000E+00
  -1.010000      0.0000000E+00
  -1.000000      0.0000000E+00
 -0.9900000      0.0000000E+00
 -0.9800000      0.0000000E+00
 -0.9700000      0.0000000E+00
 -0.9600000      0.0000000E+00
 -0.9500000      0.0000000E+00
 -0.9400000      0.0000000E+00
 -0.9300000      0.0000000E+00
 -0.9200000      0.0000000E+00
 -0.9100000      0.0000000E+00
 -0.9000000      0.0000000E+00
 -0.8900000      0.0000000E+00
 -0.8800000      0.0000000E+00
 -0.8700000      0.0000000E+00
 -0.8600000      0.0000000E+00
 -0.8500000      0.0000000E+00
 -0.8400000      0.0000000E+00
 -0.8300000      0.0000000E+00
 -0.8200000      0.0000000E+00
 -0.8100000      0.0000000E+00
 -0.8000000      0.0000000E+00
 -0.7900000      0.0000000E+00
 -0.7800000      0.0000000E+00
 -0.7700000      0.0000000E+00
 -0.7600000      0.0000000E+00
 -0.7500000      0.0000000E+00
 -0.7400000      0.0000000E+00
 -0.7300000      0.0000000E+00
 -0.7200000      0.0000000E+00
 -0.7100000      0.0000000E+00
 -0.7000000      0.0000000E+00
 -0.6900000      0.0000000E+00
 -0.6800000      0.0000000E+00
 -0.6700000      0.0000000E+00
 -0.6600000      0.0000000E+00
 -0.6500000      0.0000000E+00
 -0.6400000      0.0000000E+00
 -0.6300000      0.0000000E+00
 -0.6200000      0.0000000E+00
 -0.6100000      0.0000000E+00
 -0.6000000      0.0000000E+00
 -0.5900000      0.0000000E+00
 -0.5800000      1.3898377E-38
 -0.5700000      1.8195024E-38
 -0.5600000      2.2540473E-38
 -0.5500000      2.6799682E-38
 -0.5400000      3.0808065E-38
 -0.5300000      3.4430528E-38
 -0.5200000      3.6357728E-38
 -0.5100000      3.6580641E-38
 -0.5000000      3.5498536E-38
 -0.4900000      3.1452623E-38
 -0.4800000      2.4247388E-38
 -0.4700000      1.3802794E-38
 -0.4600000      0.0000000E+00
 -0.4500000     -1.9044159E-38
 -0.4400000     -4.4880543E-38
 -0.4300000     -7.6134171E-38
 -0.4200000     -1.1251308E-37
 -0.4100000     -1.5436736E-37
 -0.4000000     -2.0445924E-37
 -0.3900000     -2.6021709E-37
 -0.3800000     -3.1083192E-37
 -0.3700000     -3.4871420E-37
 -0.3600000     -3.7558965E-37
 -0.3500000     -3.8582137E-37
 -0.3400000     -2.7058946E-37
 -0.3300000      0.0000000E+00
 -0.3200000      3.5297641E-37
 -0.3100000      8.0413376E-37
 -0.3000000      1.3641924E-36
 -0.2900000      2.0872642E-36
 -0.2800000      2.9160826E-36
 -0.2700000      3.8212459E-36
 -0.2600000      4.7129697E-36
 -0.2500000      5.4507972E-36
 -0.2400000      5.9300214E-36
 -0.2300000      6.0997079E-36
 -0.2200000      5.9266091E-36
 -0.2100000      5.3043508E-36
 -0.2000000      4.0949053E-36
 -0.1900000      2.3713789E-36
 -0.1800000      1.3732040E-37
 -0.1700000     -2.6073326E-36
 -0.1600000     -5.8102234E-36
 -0.1500000     -9.5954060E-36
 -0.1400000     -1.3809130E-35
 -0.1300000     -1.8070791E-35
 -0.1200000     -2.2004380E-35
 -0.1100000     -2.5349622E-35
 -0.1000000     -2.8365158E-35
 -9.0000004E-02 -3.1073717E-35
 -7.9999998E-02 -3.3260403E-35
 -7.0000000E-02 -3.4708841E-35
 -5.9999999E-02 -3.4829393E-35
 -5.0000001E-02 -3.3261399E-35
 -3.9999999E-02 -2.9976151E-35
 -2.9999999E-02 -2.4956907E-35
 -2.0000000E-02 -1.3269881E-35
 -9.9999998E-03  8.1085226E-36
 -3.4694470E-17  3.5470841E-35
  9.9999998E-03  7.0086520E-35
  2.0000000E-02  1.1220720E-34
  2.9999999E-02  1.5775139E-34
  3.9999999E-02  2.0455356E-34
  5.0000001E-02  2.4690049E-34
  5.9999999E-02  2.8404643E-34
  7.0000000E-02  3.1755142E-34
  7.9999998E-02  3.4148435E-34
  9.0000004E-02  3.4628856E-34
  0.1000000      3.2291007E-34
  0.1100000      2.6700454E-34
  0.1200000      1.8031660E-34
  0.1300000      6.1700464E-35
  0.1400000     -9.1055359E-35
  0.1500000     -2.7479460E-34
  0.1600000     -4.8595460E-34
  0.1700000     -7.1833101E-34
  0.1800000     -9.6415553E-34
  0.1900000     -1.2109900E-33
  0.2000000     -1.4510097E-33
  0.2100000     -1.6649052E-33
  0.2200000     -1.8317607E-33
  0.2300000     -1.9362282E-33
  0.2400000     -1.9535293E-33
  0.2500000     -1.8596594E-33
  0.2600000     -1.6273487E-33
  0.2700000     -1.2287112E-33
  0.2800000     -6.3478573E-34
  0.2900000      1.8391106E-34
  0.3000000      1.2572011E-33
  0.3100000      2.6150720E-33
  0.3200000      4.2870716E-33
  0.3300000      6.3016445E-33
  0.3400000      8.6872214E-33
  0.3500000      1.1471153E-32
  0.3600000      1.4678551E-32
  0.3700000      1.8333385E-32
  0.3800000      2.2457905E-32
  0.3900000      2.7072434E-32
  0.4000000      3.2195027E-32
  0.4100000      3.7841129E-32
  0.4200000      4.4023098E-32
  0.4300000      5.0749330E-32
  0.4400000      5.8024194E-32
  0.4500000      6.5846568E-32
  0.4600000      7.4208141E-32
  0.4700000      8.3092775E-32
  0.4800000      9.2474718E-32
  0.4900000      1.0231683E-31
  0.5000000      1.1256871E-31
  0.5100000      1.2316489E-31
  0.5200000      1.3402274E-31
  0.5300000      1.4504076E-31
  0.5400000      1.5609685E-31
  0.5500000      1.6704690E-31
  0.5600000      1.7772387E-31
  0.5700000      1.8793707E-31
  0.5800000      1.9747228E-31
  0.5900000      2.0609235E-31
  0.6000000      2.1353847E-31
  0.6100000      2.1953222E-31
  0.6200000      2.2377818E-31
  0.6300000      2.2596732E-31
  0.6400000      2.2578094E-31
  0.6500000      2.2289479E-31
  0.6600000      2.1698377E-31
  0.6700000      2.0772643E-31
  0.6800000      1.9480944E-31
  0.6900000      1.7793148E-31
  0.7000000      1.5680655E-31
  0.7100000      1.3116624E-31
  0.7200000      1.0076077E-31
  0.7300000      6.5358685E-32
  0.7400000      2.4745044E-32
  0.7500000     -2.1282169E-32
  0.7600000     -7.2917161E-32
  0.7700000     -1.3035301E-31
  0.7800000     -1.9378987E-31
  0.7900000     -2.6344413E-31
  0.8000000     -3.3955852E-31
  0.8100000     -4.2241234E-31
  0.8200000     -5.1233197E-31
  0.8300000     -6.0970014E-31
  0.8400000     -7.1496463E-31
  0.8500000     -8.2864462E-31
  0.8600000     -9.5133567E-31
  0.8700000     -1.0837113E-30
  0.8800000     -1.2265224E-30
  0.8900000     -1.3805936E-30
  0.9000000     -1.5468164E-30
  0.9100000     -1.7261405E-30
  0.9200000     -1.9195618E-30
  0.9300000     -2.1281101E-30
  0.9400000     -2.3528355E-30
  0.9500000     -2.5947945E-30
  0.9600000     -2.8550382E-30
  0.9700000     -3.1346031E-30
  0.9800000     -3.4345030E-30
  0.9900000     -3.7557293E-30
   1.000000     -4.0992527E-30
   1.010000     -4.4660341E-30
   1.020000     -4.8570400E-30
   1.030000     -5.2732654E-30
   1.040000     -5.7157621E-30
   1.050000     -6.1856740E-30
   1.060000     -6.6842754E-30
   1.070000     -7.2130146E-30
   1.080000     -7.7735558E-30
   1.090000     -8.3678210E-30
   1.100000     -8.9980342E-30
   1.110000     -9.6667532E-30
   1.120000     -1.0376895E-29
   1.130000     -1.1131756E-29
   1.140000     -1.1935022E-29
   1.150000     -1.2790758E-29
   1.160000     -1.3703393E-29
   1.170000     -1.4677690E-29
   1.180000     -1.5718707E-29
   1.190000     -1.6831740E-29
   1.200000     -1.8022273E-29
   1.210000     -1.9295907E-29
   1.220000     -2.0658302E-29
   1.230000     -2.2115126E-29
   1.240000     -2.3671993E-29
   1.250000     -2.5334447E-29
   1.260000     -2.7107921E-29
   1.270000     -2.8997767E-29
   1.280000     -3.1009266E-29
   1.290000     -3.3147695E-29
   1.300000     -3.5418399E-29
   1.310000     -3.7826913E-29
   1.320000     -4.0379080E-29
   1.330000     -4.3081208E-29
   1.340000     -4.5940239E-29
   1.350000     -4.8963910E-29
   1.360000     -5.2160918E-29
   1.370000     -5.5541099E-29
   1.380000     -5.9115547E-29
   1.390000     -6.2896725E-29
   1.400000     -6.6898567E-29
   1.410000     -7.1136479E-29
   1.420000     -7.5627345E-29
   1.430000     -8.0389465E-29
   1.440000     -8.5442438E-29
   1.450000     -9.0807001E-29
   1.460000     -9.6504847E-29
   1.470000     -1.0255838E-28
   1.480000     -1.0899051E-28
   1.490000     -1.1582437E-28
   1.500000     -1.2308310E-28
   1.510000     -1.3078964E-28
   1.520000     -1.3896657E-28
   1.530000     -1.4763602E-28
   1.540000     -1.5681965E-28
   1.550000     -1.6653870E-28
   1.560000     -1.7681416E-28
   1.570000     -1.8766703E-28
   1.580000     -1.9911857E-28
   1.590000     -2.1119086E-28
   1.600000     -2.2390710E-28
   1.610000     -2.3729231E-28
   1.620000     -2.5137370E-28
   1.630000     -2.6618129E-28
   1.640000     -2.8174834E-28
   1.650000     -2.9811171E-28
   1.660000     -3.1531217E-28
   1.670000     -3.3339453E-28
   1.680000     -3.5240762E-28
   1.690000     -3.7240400E-28
   1.700000     -3.9343966E-28
   1.710000     -4.1557331E-28
   1.720000     -4.3886580E-28
   1.730000     -4.6337894E-28
   1.740000     -4.8917455E-28
   1.750000     -5.1631346E-28
   1.760000     -5.4485410E-28
   1.770000     -5.7485152E-28
   1.780000     -6.0635632E-28
   1.790000     -6.3941351E-28
   1.800000     -6.7406214E-28
   1.810000     -7.1033458E-28
   1.820000     -7.4825643E-28
   1.830000     -7.8784671E-28
   1.840000     -8.2911814E-28
   1.850000     -8.7207803E-28
   1.860000     -9.1672917E-28
   1.870000     -9.6307138E-28
   1.880000     -1.0111025E-27
   1.890000     -1.0608206E-27
   1.900000     -1.1122247E-27
   1.910000     -1.1653168E-27
   1.920000     -1.2201030E-27
   1.930000     -1.2765939E-27
   1.940000     -1.3348058E-27
   1.950000     -1.3947596E-27
   1.960000     -1.4564816E-27
   1.970000     -1.5200014E-27
   1.980000     -1.5853504E-27
   1.990000     -1.6525596E-27
   2.000000     -1.7216570E-27
   2.010000     -1.7926639E-27
   2.020000     -1.8655927E-27
   2.030000     -1.9404422E-27
   2.040000     -2.0171953E-27
   2.050000     -2.0958151E-27
   2.060000     -2.1762431E-27
   2.070000     -2.2583957E-27
   2.080000     -2.3421652E-27
   2.090000     -2.4274176E-27
   2.100000     -2.5139944E-27
   2.110000     -2.6017137E-27
   2.120000     -2.6903729E-27
   2.130000     -2.7797527E-27
   2.140000     -2.8696202E-27
   2.150000     -2.9597345E-27
   2.160000     -3.0498524E-27
   2.170000     -3.1397328E-27
   2.180000     -3.2291418E-27
   2.190000     -3.3178565E-27
   2.200000     -3.4056689E-27
   2.210000     -3.4923885E-27
   2.220000     -3.5778417E-27
   2.230000     -3.6618727E-27
   2.240000     -3.7443402E-27
   2.250000     -3.8251130E-27
   2.260000     -3.9040653E-27
   2.270000     -3.9810686E-27
   2.280000     -4.0559854E-27
   2.290000     -4.1286580E-27
   2.300000     -4.1989024E-27
   2.310000     -4.2664980E-27
   2.320000     -4.3311799E-27
   2.330000     -4.3926325E-27
   2.340000     -4.4504844E-27
   2.350000     -4.5043076E-27
   2.360000     -4.5536168E-27
   2.370000     -4.5978727E-27
   2.380000     -4.6364880E-27
   2.390000     -4.6688355E-27
   2.400000     -4.6942616E-27
   2.410000     -4.7120985E-27
   2.420000     -4.7216788E-27
   2.430000     -4.7223540E-27
   2.440000     -4.7135086E-27
   2.450000     -4.6945756E-27
   2.460000     -4.6650515E-27
   2.470000     -4.6245060E-27
   2.480000     -4.5725926E-27
   2.490000     -4.5090488E-27
   2.500000     -4.4336976E-27
   2.510000     -4.3464422E-27
   2.520000     -4.2472537E-27
   2.530000     -4.1361595E-27
   2.540000     -4.0132224E-27
   2.550000     -3.8785178E-27
   2.560000     -3.7321121E-27
   2.570000     -3.5740372E-27
   2.580000     -3.4042645E-27
   2.590000     -3.2226832E-27
   2.600000     -3.0290812E-27
   2.610000     -2.8231311E-27
   2.620000     -2.6043815E-27
   2.630000     -2.3722544E-27
   2.640000     -2.1260529E-27
   2.650000     -1.8649731E-27
   2.660000     -1.5881270E-27
   2.670000     -1.2945701E-27
   2.680000     -9.8333611E-28
   2.690000     -6.5347443E-28
   2.700000     -3.0409208E-28
   2.710000      6.5606268E-29
   2.720000      4.5627693E-28
   2.730000      8.6840239E-28
   2.740000      1.3022629E-27
   2.750000      1.7579157E-27
   2.760000      2.2351860E-27
   2.770000      2.7336673E-27
   2.780000      3.2527374E-27
   2.790000      3.7915848E-27
   2.800000      4.3492467E-27
   2.810000      4.9246576E-27
   2.820000      5.5167088E-27
   2.830000      6.1243105E-27
   2.840000      6.7464586E-27
   2.850000      7.3822990E-27
   2.860000      8.0311895E-27
   2.870000      8.6927495E-27
   2.880000      9.3669013E-27
   2.890000      1.0053894E-26
   2.900000      1.0754312E-26
   2.910000      1.1469063E-26
   2.920000      1.2199346E-26
   2.930000      1.2946599E-26
   2.940000      1.3712427E-26
   2.950000      1.4498519E-26
   2.960000      1.5306553E-26
   2.970000      1.6138083E-26
   2.980000      1.6994443E-26
   2.990000      1.7876633E-26
   3.000000      1.8785229E-26
   3.010000      1.9720304E-26
   3.020000      2.0681369E-26
   3.030000      2.1667334E-26
   3.040000      2.2676508E-26
   3.050000      2.3706612E-26
   3.060000      2.4754843E-26
   3.070000      2.5817954E-26
   3.080000      2.6892345E-26
   3.090000      2.7974216E-26
   3.100000      2.9059688E-26
   3.110000      3.0144957E-26
   3.120000      3.1226449E-26
   3.130000      3.2300948E-26
   3.140000      3.3365707E-26
   3.150000      3.4418537E-26
   3.160000      3.5457880E-26
   3.170000      3.6482777E-26
   3.180000      3.7492864E-26
   3.190000      3.8488265E-26
   3.200000      3.9469466E-26
   3.210000      4.0437130E-26
   3.220000      4.1391901E-26
   3.230000      4.2334134E-26
   3.240000      4.3263640E-26
   3.250000      4.4179425E-26
   3.260000      4.5079401E-26
   3.270000      4.5960167E-26
   3.280000      4.6816790E-26
   3.290000      4.7642638E-26
   3.300000      4.8429290E-26
   3.310000      4.9166486E-26
   3.320000      4.9842179E-26
   3.330000      5.0442620E-26
   3.340000      5.0952554E-26
   3.350000      5.1355452E-26
   3.360000      5.1633806E-26
   3.370000      5.1769453E-26
   3.380000      5.1743932E-26
   3.390000      5.1538841E-26
   3.400000      5.1136167E-26
   3.410000      5.0518575E-26
   3.420000      4.9669659E-26
   3.430000      4.8574079E-26
   3.440000      4.7217658E-26
   3.450000      4.5587323E-26
   3.460000      4.3670982E-26
   3.470000      4.1457275E-26
   3.480000      3.8935247E-26
   3.490000      3.6093921E-26
   3.500000      3.2921809E-26
   3.510000      2.9406396E-26
   3.520000      2.5533583E-26
   3.530000      2.1287197E-26
   3.540000      1.6648500E-26
   3.550000      1.1595798E-26
   3.560000      6.1041968E-27
   3.570000      1.4544470E-28
   3.580000     -6.3120597E-27
   3.590000     -1.3303065E-26
   3.600000     -2.0865124E-26
   3.610000     -2.9038050E-26
   3.620000     -3.7863253E-26
   3.630000     -4.7382930E-26
   3.640000     -5.7639133E-26
   3.650000     -6.8672813E-26
   3.660000     -8.0522786E-26
   3.670000     -9.3224796E-26
   3.680000     -1.0681057E-25
   3.690000     -1.2130701E-25
   3.700000     -1.3673559E-25
   3.710000     -1.5311184E-25
   3.720000     -1.7044508E-25
   3.730000     -1.8873846E-25
   3.740000     -2.0798902E-25
   3.750000     -2.2818815E-25
   3.760000     -2.4932213E-25
   3.770000     -2.7137281E-25
   3.780000     -2.9431841E-25
   3.790000     -3.1813437E-25
   3.800000     -3.4279401E-25
   3.810000     -3.6826938E-25
   3.820000     -3.9453172E-25
   3.830000     -4.2155164E-25
   3.840000     -4.4929928E-25
   3.850000     -4.7774383E-25
   3.860000     -5.0685304E-25
   3.870000     -5.3659206E-25
   3.880000     -5.6692194E-25
   3.890000     -5.9779815E-25
   3.900000     -6.2916839E-25
   3.910000     -6.6097048E-25
   3.920000     -6.9312992E-25
   3.930000     -7.2555748E-25
   3.940000     -7.5814695E-25
   3.950000     -7.9077296E-25
   3.960000     -8.2328892E-25
   3.970000     -8.5552537E-25
   3.980000     -8.8728905E-25
   3.990000     -9.1836179E-25
   4.000000     -9.4850062E-25
   4.010000     -9.7743801E-25
   4.020000     -1.0048825E-24
   4.030000     -1.0305201E-24
   4.040000     -1.0540159E-24
   4.050000     -1.0750161E-24
   4.060000     -1.0931497E-24
   4.070000     -1.1080315E-24
   4.080000     -1.1192631E-24
   4.090000     -1.1264359E-24
   4.100000     -1.1291318E-24
   4.110000     -1.1269249E-24
   4.120000     -1.1193816E-24
   4.130000     -1.1060609E-24
   4.140000     -1.0865140E-24
   4.150000     -1.0602827E-24
   4.160000     -1.0268983E-24
   4.170000     -9.8587892E-25
   4.180000     -9.3672726E-25
   4.190000     -8.7892821E-25
   4.200000     -8.1194643E-25
   4.210000     -7.3522364E-25
   4.220000     -6.4817723E-25
   4.230000     -5.5019907E-25
   4.240000     -4.4065519E-25
   4.250000     -3.1888649E-25
   4.260000     -1.8421083E-25
   4.270000     -3.5925940E-26
   4.280000      1.2668613E-25
   4.290000      3.0435329E-25
   4.300000      4.9780658E-25
   4.310000      7.0777256E-25
   4.320000      9.3496426E-25
   4.330000      1.1800721E-24
   4.340000      1.4437541E-24
   4.350000      1.7266258E-24
   4.360000      2.0292510E-24
   4.370000      2.3521316E-24
   4.380000      2.6956994E-24
   4.390000      3.0603086E-24
   4.400000      3.4462276E-24
   4.410000      3.8536352E-24
   4.420000      4.2826138E-24
   4.430000      4.7331457E-24
   4.440000      5.2051121E-24
   4.450000      5.6982874E-24
   4.460000      6.2123400E-24
   4.470000      6.7468291E-24
   4.480000      7.3012027E-24
   4.490000      7.8747937E-24
   4.500000      8.4668189E-24
   4.510000      9.0763677E-24
   4.520000      9.7024014E-24
   4.530000      1.0343740E-23
   4.540000      1.0999054E-23
   4.550000      1.1666849E-23
   4.560000      1.2345453E-23
   4.570000      1.3032997E-23
   4.580000      1.3727398E-23
   4.590000      1.4426341E-23
   4.600000      1.5127260E-23
   4.610000      1.5827308E-23
   4.620000      1.6523354E-23
   4.630000      1.7211951E-23
   4.640000      1.7889325E-23
   4.650000      1.8551356E-23
   4.660000      1.9193571E-23
   4.670000      1.9811136E-23
   4.680000      2.0398842E-23
   4.690000      2.0951109E-23
   4.700000      2.1461991E-23
   4.710000      2.1925174E-23
   4.720000      2.2333985E-23
   4.730000      2.2681406E-23
   4.740000      2.2960087E-23
   4.750000      2.3162354E-23
   4.760000      2.3280232E-23
   4.770000      2.3305461E-23
   4.780000      2.3229508E-23
   4.790000      2.3043583E-23
   4.800000      2.2738654E-23
   4.810000      2.2305462E-23
   4.820000      2.1734532E-23
   4.830000      2.1016187E-23
   4.840000      2.0140556E-23
   4.850000      1.9097583E-23
   4.860000      1.7877038E-23
   4.870000      1.6468535E-23
   4.880000      1.4861535E-23
   4.890000      1.3045375E-23
   4.900000      1.1009282E-23
   4.910000      8.7424090E-24
   4.920000      6.2338593E-24
   4.930000      3.4727341E-24
   4.940000      4.4818131E-25
   4.950000     -2.8505436E-24
   4.960000     -6.4340154E-24
   4.970000     -1.0312561E-23
   4.980000     -1.4496171E-23
   4.990000     -1.8994418E-23
   5.000000     -2.3816348E-23
   5.010000     -2.8970371E-23
   5.020000     -3.4464165E-23
   5.030000     -4.0304544E-23
   5.040000     -4.6497352E-23
   5.050000     -5.3047343E-23
   5.060000     -5.9958080E-23
   5.070000     -6.7231769E-23
   5.080000     -7.4869217E-23
   5.090000     -8.2869661E-23
   5.100000     -9.1230691E-23
   5.110000     -9.9948134E-23
   5.120000     -1.0901597E-22
   5.130000     -1.1842618E-22
   5.140000     -1.2816876E-22
   5.150000     -1.3823147E-22
   5.160000     -1.4859986E-22
   5.170000     -1.5925713E-22
   5.180000     -1.7018403E-22
   5.190000     -1.8135869E-22
   5.200000     -1.9275662E-22
   5.210000     -2.0435048E-22
   5.220000     -2.1611000E-22
   5.230000     -2.2800185E-22
   5.240000     -2.3998954E-22
   5.250000     -2.5203316E-22
   5.260000     -2.6408933E-22
   5.270000     -2.7611101E-22
   5.280000     -2.8804737E-22
   5.290000     -2.9984363E-22
   5.300000     -3.1144095E-22
   5.310000     -3.2277626E-22
   5.320000     -3.3378222E-22
   5.330000     -3.4438704E-22
   5.340000     -3.5451447E-22
   5.350000     -3.6408374E-22
   5.360000     -3.7300948E-22
   5.370000     -3.8120182E-22
   5.380000     -3.8856635E-22
   5.390000     -3.9500414E-22
   5.400000     -4.0041191E-22
   5.410000     -4.0468211E-22
   5.420000     -4.0770303E-22
   5.430000     -4.0935896E-22
   5.440000     -4.0953044E-22
   5.450000     -4.0809446E-22
   5.460000     -4.0492457E-22
   5.470000     -3.9989124E-22
   5.480000     -3.9286205E-22
   5.490000     -3.8370207E-22
   5.500000     -3.7227406E-22
   5.510000     -3.5843881E-22
   5.520000     -3.4205554E-22
   5.530000     -3.2298215E-22
   5.540000     -3.0107564E-22
   5.550000     -2.7619257E-22
   5.560000     -2.4818945E-22
   5.570000     -2.1692332E-22
   5.580000     -1.8225207E-22
   5.590000     -1.4403523E-22
   5.600000     -1.0213446E-22
   5.610000     -5.6414264E-23
   5.620000     -6.7427452E-24
   5.630000      4.7007612E-23
   5.640000      1.0495912E-22
   5.650000      1.6722796E-22
   5.660000      2.3392311E-22
   5.670000      3.0514531E-22
   5.680000      3.8098612E-22
   5.690000      4.6152659E-22
   5.700000      5.4683621E-22
   5.710000      6.3697143E-22
   5.720000      7.3197477E-22
   5.730000      8.3187324E-22
   5.740000      9.3667693E-22
   5.750000      1.0463781E-21
   5.760000      1.1609493E-21
   5.770000      1.2803425E-21
   5.780000      1.4044875E-21
   5.790000      1.5332904E-21
   5.800000      1.6666328E-21
   5.810000      1.8043699E-21
   5.820000      1.9463293E-21
   5.830000      2.0923105E-21
   5.840000      2.2420819E-21
   5.850000      2.3953812E-21
   5.860000      2.5519132E-21
   5.870000      2.7113486E-21
   5.880000      2.8733227E-21
   5.890000      3.0374347E-21
   5.900000      3.2032454E-21
   5.910000      3.3702765E-21
   5.920000      3.5380098E-21
   5.930000      3.7058851E-21
   5.940000      3.8732999E-21
   5.950000      4.0396076E-21
   5.960000      4.2041168E-21
   5.970000      4.3660899E-21
   5.980000      4.5247426E-21
   5.990000      4.6792440E-21
   6.000000      4.8287145E-21
   6.010000      4.9722267E-21
   6.020000      5.1088032E-21
   6.030000      5.2374197E-21
   6.040000      5.3570018E-21
   6.050000      5.4664275E-21
   6.060000      5.5645272E-21
   6.070000      5.6500842E-21
   6.080000      5.7218369E-21
   6.090000      5.7784778E-21
   6.100000      5.8186586E-21
   6.110000      5.8409893E-21
   6.120000      5.8440427E-21
   6.130000      5.8263541E-21
   6.140000      5.7864273E-21
   6.150000      5.7227348E-21
   6.160000      5.6337228E-21
   6.170000      5.5178141E-21
   6.180000      5.3734125E-21
   6.190000      5.1989065E-21
   6.200000      4.9926752E-21
   6.210000      4.7530909E-21
   6.220000      4.4785267E-21
   6.230000      4.1673602E-21
   6.240000      3.8179797E-21
   6.250000      3.4287921E-21
   6.260000      2.9982276E-21
   6.270000      2.5247469E-21
   6.280000      2.0068502E-21
   6.290000      1.4430845E-21
   6.300000      8.3205136E-22
   6.310000      1.7241615E-22
   6.320000     -5.3708210E-22
   6.330000     -1.2976212E-21
   6.340000     -2.1102872E-21
   6.350000     -2.9760613E-21
   6.360000     -3.8958099E-21
   6.370000     -4.8702718E-21
   6.380000     -5.9000487E-21
   6.390000     -6.9855904E-21
   6.400000     -8.1271868E-21
   6.410000     -9.3249476E-21
   6.420000     -1.0578797E-20
   6.430000     -1.1888454E-20
   6.440000     -1.3253425E-20
   6.450000     -1.4672989E-20
   6.460000     -1.6146178E-20
   6.470000     -1.7671772E-20
   6.480000     -1.9248280E-20
   6.490000     -2.0873930E-20
   6.500000     -2.2546653E-20
   6.510000     -2.4264069E-20
   6.520000     -2.6023479E-20
   6.530000     -2.7821848E-20
   6.540000     -2.9655795E-20
   6.550000     -3.1521578E-20
   6.560000     -3.3415082E-20
   6.570000     -3.5331811E-20
   6.580000     -3.7266874E-20
   6.590000     -3.9214982E-20
   6.600000     -4.1170417E-20
   6.610000     -4.3127055E-20
   6.620000     -4.5078325E-20
   6.630000     -4.7017227E-20
   6.640000     -4.8936312E-20
   6.650000     -5.0827680E-20
   6.660000     -5.2682968E-20
   6.670000     -5.4493353E-20
   6.680000     -5.6249561E-20
   6.690000     -5.7941843E-20
   6.700000     -5.9560009E-20
   6.710000     -6.1093389E-20
   6.720000     -6.2530867E-20
   6.730000     -6.3860889E-20
   6.740000     -6.5071462E-20
   6.750000     -6.6150157E-20
   6.760000     -6.7084147E-20
   6.770000     -6.7860191E-20
   6.780000     -6.8464692E-20
   6.790000     -6.8883685E-20
   6.800000     -6.9102869E-20
   6.810000     -6.9107644E-20
   6.820000     -6.8883123E-20
   6.830000     -6.8414183E-20
   6.840000     -6.7685475E-20
   6.850000     -6.6681491E-20
   6.860000     -6.5386585E-20
   6.870000     -6.3785021E-20
   6.880000     -6.1861019E-20
   6.890000     -5.9598809E-20
   6.900000     -5.6982669E-20
   6.910000     -5.3997003E-20
   6.920000     -5.0626391E-20
   6.930000     -4.6855639E-20
   6.940000     -4.2669857E-20
   6.950000     -3.8054531E-20
   6.960000     -3.2995595E-20
   6.970000     -2.7479492E-20
   6.980000     -2.1493275E-20
   6.990000     -1.5024674E-20
   7.000000     -8.0621861E-21
   7.010000     -5.9515898E-22
   7.020000      7.3861057E-21
   7.030000      1.5890264E-20
   7.040000      2.4924834E-20
   7.050000      3.4496088E-20
   7.060000      4.4608959E-20