  -2.600000      0.0000000E+00
  -2.590000      0.0000000E+00
  -2.580000      0.0000000E+00
  -2.570000      0.0000000E+00
  -2.560000      0.0000000E+00
  -2.550000      0.0000000E+00
  -2.540000      0.0000000E+00
  -2.530000      0.0000000E+00
  -2.520000      0.0000000E+00
  -2.510000      0.0000000E+00
  -2.500000      0.0000000E+00
  -2.490000      0.0000000E+00
  -2.480000      0.0000000E+00
  -2.470000      0.0000000E+00
  -2.460000      0.0000000E+00
  -2.450000      0.0000000E+00
  -2.440000      0.0000000E+00
  -2.430000      0.0000000E+00
  -2.420000      0.0000000E+00
  -2.410000      0.0000000E+00
  -2.400000      0.0000000E+00
  -2.390000      0.0000000E+00
  -2.380000      0.0000000E+00
  -2.370000      0.0000000E+00
  -2.360000      0.0000000E+00
  -2.350000      0.0000000E+00
  -2.340000      0.0000000E+00
  -2.330000      0.0000000E+00
  -2.320000      0.0000000E+00
  -2.310000      0.0000000E+00
  -2.300000      0.0000000E+00
  -2.290000      0.0000000E+00
  -2.280000      0.0000000E+00
  -2.270000      0.0000000E+00
  -2.260000      0.0000000E+00
  -2.250000      0.0000000E+00
  -2.240000      0.0000000E+00
  -2.230000      0.0000000E+00
  -2.220000      0.0000000E+00
  -2.210000      0.0000000E+00
  -2.200000      0.0000000E+00
  -2.190000      0.0000000E+00
  -2.180000      0.0000000E+00
  -2.170000      0.0000000E+00
  -2.160000      0.0000000E+00
  -2.150000      0.0000000E+00
  -2.140000      0.0000000E+00
  -2.130000      0.0000000E+00
  -2.120000      0.0000000E+00
  -2.110000      0.0000000E+00
  -2.100000      0.0000000E+00
  -2.090000      0.0000000E+00
  -2.080000      0.0000000E+00
  -2.070000      0.0000000E+00
  -2.060000      0.0000000E+00
  -2.050000      0.0000000E+00
  -2.040000      0.0000000E+00
  -2.030000      0.0000000E+00
  -2.020000      0.0000000E+00
  -2.010000      0.0000000E+00
  -2.000000      0.0000000E+00
  -1.990000      0.0000000E+00
  -1.980000      0.0000000E+00
  -1.970000      0.0000000E+00
  -1.960000      0.0000000E+00
  -1.950000      0.0000000E+00
  -1.940000      0.0000000E+00
  -1.930000      0.0000000E+00
  -1.920000      0.0000000E+00
  -1.910000      0.0000000E+00
  -1.900000      0.0000000E+00
  -1.890000      0.0000000E+00
  -1.880000      0.0000000E+00
  -1.870000      0.0000000E+00
  -1.860000      0.0000000E+00
  -1.850000      0.0000000E+00
  -1.840000      0.0000000E+00
  -1.830000      0.0000000E+00
  -1.820000      0.0000000E+00
  -1.810000      0.0000000E+00
  -1.800000      0.0000000E+00
  -1.790000      0.0000000E+00
  -1.780000      0.0000000E+00
  -1.770000      0.0000000E+00
  -1.760000      0.0000000E+00
  -1.750000      0.0000000E+00
  -1.740000      0.0000000E+00
  -1.730000      0.0000000E+00
  -1.720000      0.0000000E+00
  -1.710000      0.0000000E+00
  -1.700000      0.0000000E+00
  -1.690000      0.0000000E+00
  -1.680000      0.0000000E+00
  -1.670000      0.0000000E+00
  -1.660000      0.0000000E+00
  -1.650000      0.0000000E+00
  -1.640000      0.0000000E+00
  -1.630000      0.0000000E+00
  -1.620000      0.0000000E+00
  -1.610000      0.0000000E+00
  -1.600000      0.0000000E+00
  -1.590000      0.0000000E+00
  -1.580000      0.0000000E+00
  -1.570000      0.0000000E+00
  -1.560000      0.0000000E+00
  -1.550000      0.0000000E+00
  -1.540000      0.0000000E+00
  -1.530000      0.0000000E+00
  -1.520000      0.0000000E+00
  -1.510000      0.0000000E+00
  -1.500000      0.0000000E+00
  -1.490000      0.0000000E+00
  -1.480000      0.0000000E+00
  -1.470000      0.0000000E+00
  -1.460000      0.0000000E+00
  -1.450000      0.0000000E+00
  -1.440000      0.0000000E+00
  -1.430000      0.0000000E+00
  -1.420000      0.0000000E+00
  -1.410000      0.0000000E+00
  -1.400000      0.0000000E+00
  -1.390000      0.0000000E+00
  -1.380000      0.0000000E+00
  -1.370000      0.0000000E+00
  -1.360000      0.0000000E+00
  -1.350000      0.0000000E+00
  -1.340000      0.0000000E+00
  -1.330000      0.0000000E+00
  -1.320000      0.0000000E+00
  -1.310000      0.0000000E+00
  -1.300000      0.0000000E+00
  -1.290000      0.0000000E+00
  -1.280000      0.0000000E+00
  -1.270000      0.0000000E+00
  -1.260000      0.0000000E+00
  -1.250000      0.0000000E+00
  -1.240000      0.0000000E+00
  -1.230000      0.0000000E+00
  -1.220000      0.0000000E+00
  -1.210000      0.0000000E+00
  -1.200000      0.0000000E+00
  -1.190000      0.0000000E+00
  -1.180000      0.0000000E+00
  -1.170000      0.0000000E+00
  -1.160000      0.0000000E+00
  -1.150000      0.0000000E+00
  -1.140000      0.0000000E+00
  -1.130000      0.0000000E+00
  -1.120000      0.0000000E+00
  -1.110000      0.0000000E+00
  -1.100000      0.0000000E+00
  -1.090000      0.0000000E+00
  -1.080000      0.0000000E+00
  -1.070000      0.0000000E+00
  -1.060000      0.0000000E+00
  -1.050000      0.0000000E+00
  -1.040000      0.0000000E+00
  -1.030000      0.0000000E+00
  -1.020000      0.0000000E+00
  -1.010000      0.0000000E+00
  -1.000000      0.0000000E+00
 -0.9900000      0.0000000E+00
 -0.9800000      0.0000000E+00
 -0.9700000      0.0000000E+00
 -0.9600000      0.0000000E+00
 -0.9500000      0.0000000E+00
 -0.9400000      0.0000000E+00
 -0.9300000      0.0000000E+00
 -0.9200000      0.0000000E+00
 -0.9100000      0.0000000E+00
 -0.9000000      0.0000000E+00
 -0.8900000      0.0000000E+00
 -0.8800000      0.0000000E+00
 -0.8700000      0.0000000E+00
 -0.8600000      0.0000000E+00
 -0.8500000      0.0000000E+00
 -0.8400000      0.0000000E+00
 -0.8300000      0.0000000E+00
 -0.8200000      0.0000000E+00
 -0.8100000      0.0000000E+00
 -0.8000000      0.0000000E+00
 -0.7900000      0.0000000E+00
 -0.7800000      0.0000000E+00
 -0.7700000      0.0000000E+00
 -0.7600000      0.0000000E+00
 -0.7500000      0.0000000E+00
 -0.7400000      0.0000000E+00
 -0.7300000      0.0000000E+00
 -0.7200000      0.0000000E+00
 -0.7100000      0.0000000E+00
 -0.7000000      0.0000000E+00
 -0.6900000      0.0000000E+00
 -0.6800000      0.0000000E+00
 -0.6700000      0.0000000E+00
 -0.6600000      0.0000000E+00
 -0.6500000      0.0000000E+00
 -0.6400000      0.0000000E+00
 -0.6300000      0.0000000E+00
 -0.6200000      0.0000000E+00
 -0.6100000      0.0000000E+00
 -0.6000000      0.0000000E+00
 -0.5900000      0.0000000E+00
 -0.5800000      0.0000000E+00
 -0.5700000      0.0000000E+00
 -0.5600000      0.0000000E+00
 -0.5500000      0.0000000E+00
 -0.5400000      0.0000000E+00
 -0.5300000      0.0000000E+00
 -0.5200000      0.0000000E+00
 -0.5100000      0.0000000E+00
 -0.5000000      0.0000000E+00
 -0.4900000      0.0000000E+00
 -0.4800000      0.0000000E+00
 -0.4700000      0.0000000E+00
 -0.4600000      0.0000000E+00
 -0.4500000      0.0000000E+00
 -0.4400000      0.0000000E+00
 -0.4300000      0.0000000E+00
 -0.4200000      0.0000000E+00
 -0.4100000      0.0000000E+00
 -0.4000000      0.0000000E+00
 -0.3900000      0.0000000E+00
 -0.3800000      0.0000000E+00
 -0.3700000      0.0000000E+00
 -0.3600000      0.0000000E+00
 -0.3500000      0.0000000E+00
 -0.3400000      0.0000000E+00
 -0.3300000      0.0000000E+00
 -0.3200000      0.0000000E+00
 -0.3100000      0.0000000E+00
 -0.3000000      0.0000000E+00
 -0.2900000      0.0000000E+00
 -0.2800000      0.0000000E+00
 -0.2700000      0.0000000E+00
 -0.2600000      0.0000000E+00
 -0.2500000      0.0000000E+00
 -0.2400000      0.0000000E+00
 -0.2300000      0.0000000E+00
 -0.2200000      0.0000000E+00
 -0.2100000      0.0000000E+00
 -0.2000000      0.0000000E+00
 -0.1900000      0.0000000E+00
 -0.1800000      0.0000000E+00
 -0.1700000      0.0000000E+00
 -0.1600000      0.0000000E+00
 -0.1500000      0.0000000E+00
 -0.1400000      0.0000000E+00
 -0.1300000      0.0000000E+00
 -0.1200000      0.0000000E+00
 -0.1100000      0.0000000E+00
 -0.1000000      0.0000000E+00
 -9.0000004E-02  0.0000000E+00
 -7.9999998E-02  0.0000000E+00
 -7.0000000E-02  0.0000000E+00
 -5.9999999E-02  0.0000000E+00
 -5.0000001E-02  0.0000000E+00
 -3.9999999E-02  0.0000000E+00
 -2.9999999E-02  0.0000000E+00
 -2.0000000E-02  0.0000000E+00
 -9.9999998E-03  0.0000000E+00
 -3.4694470E-17  0.0000000E+00
  9.9999998E-03  0.0000000E+00
  2.0000000E-02  0.0000000E+00
  2.9999999E-02  0.0000000E+00
  3.9999999E-02  0.0000000E+00
  5.0000001E-02  0.0000000E+00
  5.9999999E-02  0.0000000E+00
  7.0000000E-02  0.0000000E+00
  7.9999998E-02  0.0000000E+00
  9.0000004E-02  0.0000000E+00
  0.1000000      0.0000000E+00
  0.1100000      0.0000000E+00
  0.1200000      0.0000000E+00
  0.1300000      0.0000000E+00
  0.1400000      0.0000000E+00
  0.1500000      0.0000000E+00
  0.1600000      0.0000000E+00
  0.1700000      0.0000000E+00
  0.1800000      0.0000000E+00
  0.1900000      0.0000000E+00
  0.2000000      0.0000000E+00
  0.2100000      0.0000000E+00
  0.2200000      0.0000000E+00
  0.2300000      0.0000000E+00
  0.2400000      0.0000000E+00
  0.2500000      0.0000000E+00
  0.2600000      0.0000000E+00
  0.2700000      0.0000000E+00
  0.2800000      0.0000000E+00
  0.2900000      0.0000000E+00
  0.3000000      0.0000000E+00
  0.3100000      0.0000000E+00
  0.3200000      0.0000000E+00
  0.3300000      0.0000000E+00
  0.3400000      0.0000000E+00
  0.3500000      0.0000000E+00
  0.3600000      0.0000000E+00
  0.3700000      0.0000000E+00
  0.3800000      0.0000000E+00
  0.3900000      0.0000000E+00
  0.4000000      0.0000000E+00
  0.4100000      0.0000000E+00
  0.4200000      0.0000000E+00
  0.4300000      0.0000000E+00
  0.4400000      0.0000000E+00
  0.4500000      0.0000000E+00
  0.4600000      0.0000000E+00
  0.4700000      0.0000000E+00
  0.4800000      0.0000000E+00
  0.4900000      0.0000000E+00
  0.5000000      0.0000000E+00
  0.5100000      0.0000000E+00
  0.5200000      0.0000000E+00
  0.5300000      0.0000000E+00
  0.5400000      0.0000000E+00
  0.5500000      0.0000000E+00
  0.5600000      0.0000000E+00
  0.5700000      0.0000000E+00
  0.5800000      0.0000000E+00
  0.5900000      0.0000000E+00
  0.6000000      0.0000000E+00
  0.6100000      0.0000000E+00
  0.6200000      0.0000000E+00
  0.6300000      0.0000000E+00
  0.6400000      0.0000000E+00
  0.6500000      0.0000000E+00
  0.6600000      0.0000000E+00
  0.6700000      0.0000000E+00
  0.6800000      0.0000000E+00
  0.6900000      0.0000000E+00
  0.7000000      0.0000000E+00
  0.7100000      0.0000000E+00
  0.7200000      0.0000000E+00
  0.7300000      0.0000000E+00
  0.7400000      0.0000000E+00
  0.7500000      0.0000000E+00
  0.7600000      0.0000000E+00
  0.7700000      0.0000000E+00
  0.7800000      0.0000000E+00
  0.7900000      0.0000000E+00
  0.8000000      0.0000000E+00
  0.8100000      0.0000000E+00
  0.8200000      0.0000000E+00
  0.8300000      0.0000000E+00
  0.8400000      0.0000000E+00
  0.8500000      0.0000000E+00
  0.8600000      0.0000000E+00
  0.8700000      0.0000000E+00
  0.8800000      0.0000000E+00
  0.8900000      0.0000000E+00
  0.9000000      0.0000000E+00
  0.9100000      0.0000000E+00
  0.9200000      0.0000000E+00
  0.9300000      0.0000000E+00
  0.9400000      0.0000000E+00
  0.9500000      0.0000000E+00
  0.9600000      0.0000000E+00
  0.9700000      0.0000000E+00
  0.9800000      0.0000000E+00
  0.9900000      0.0000000E+00
   1.000000      0.0000000E+00
   1.010000      0.0000000E+00
   1.020000      0.0000000E+00
   1.030000      0.0000000E+00
   1.040000      0.0000000E+00
   1.050000      0.0000000E+00
   1.060000      0.0000000E+00
   1.070000      0.0000000E+00
   1.080000      0.0000000E+00
   1.090000      0.0000000E+00
   1.100000      0.0000000E+00
   1.110000      0.0000000E+00
   1.120000      0.0000000E+00
   1.130000      0.0000000E+00
   1.140000      0.0000000E+00
   1.150000      0.0000000E+00
   1.160000      0.0000000E+00
   1.170000      0.0000000E+00
   1.180000      0.0000000E+00
   1.190000      0.0000000E+00
   1.200000      0.0000000E+00
   1.210000      0.0000000E+00
   1.220000      0.0000000E+00
   1.230000      0.0000000E+00
   1.240000      0.0000000E+00
   1.250000      0.0000000E+00
   1.260000      0.0000000E+00
   1.270000      0.0000000E+00
   1.280000      0.0000000E+00
   1.290000      0.0000000E+00
   1.300000      0.0000000E+00
   1.310000      0.0000000E+00
   1.320000      0.0000000E+00
   1.330000      0.0000000E+00
   1.340000      0.0000000E+00
   1.350000      0.0000000E+00
   1.360000      0.0000000E+00
   1.370000      0.0000000E+00
   1.380000      0.0000000E+00
   1.390000      0.0000000E+00
   1.400000      0.0000000E+00
   1.410000      0.0000000E+00
   1.420000      0.0000000E+00
   1.430000      0.0000000E+00
   1.440000      0.0000000E+00
   1.450000      0.0000000E+00
   1.460000      0.0000000E+00
   1.470000      0.0000000E+00
   1.480000      0.0000000E+00
   1.490000      0.0000000E+00
   1.500000      0.0000000E+00
   1.510000      0.0000000E+00
   1.520000      0.0000000E+00
   1.530000      0.0000000E+00
   1.540000      0.0000000E+00
   1.550000      0.0000000E+00
   1.560000      0.0000000E+00
   1.570000      0.0000000E+00
   1.580000      0.0000000E+00
   1.590000      0.0000000E+00
   1.600000      0.0000000E+00
   1.610000      0.0000000E+00
   1.620000      0.0000000E+00
   1.630000      0.0000000E+00
   1.640000      0.0000000E+00
   1.650000      0.0000000E+00
   1.660000      0.0000000E+00
   1.670000      0.0000000E+00
   1.680000      0.0000000E+00
   1.690000      0.0000000E+00
   1.700000      0.0000000E+00
   1.710000      0.0000000E+00
   1.720000      0.0000000E+00
   1.730000      0.0000000E+00
   1.740000      0.0000000E+00
   1.750000      0.0000000E+00
   1.760000      0.0000000E+00
   1.770000      0.0000000E+00
   1.780000      0.0000000E+00
   1.790000      0.0000000E+00
   1.800000      0.0000000E+00
   1.810000      0.0000000E+00
   1.820000      0.0000000E+00
   1.830000      0.0000000E+00
   1.840000      0.0000000E+00
   1.850000      0.0000000E+00
   1.860000      0.0000000E+00
   1.870000      0.0000000E+00
   1.880000      0.0000000E+00
   1.890000      0.0000000E+00
   1.900000      0.0000000E+00
   1.910000      0.0000000E+00
   1.920000      0.0000000E+00
   1.930000      0.0000000E+00
   1.940000      0.0000000E+00
   1.950000      0.0000000E+00
   1.960000      0.0000000E+00
   1.970000      0.0000000E+00
   1.980000      0.0000000E+00
   1.990000      0.0000000E+00
   2.000000      0.0000000E+00
   2.010000      0.0000000E+00
   2.020000      0.0000000E+00
   2.030000      0.0000000E+00
   2.040000      0.0000000E+00
   2.050000      0.0000000E+00
   2.060000      0.0000000E+00
   2.070000      0.0000000E+00
   2.080000      0.0000000E+00
   2.090000      0.0000000E+00
   2.100000      0.0000000E+00
   2.110000      0.0000000E+00
   2.120000      0.0000000E+00
   2.130000      1.2063071E-38
   2.140000      1.3487049E-38
   2.150000      1.4955164E-38
   2.160000      1.6450477E-38
   2.170000      1.7718347E-38
   2.180000      1.8758836E-38
   2.190000      1.9810215E-38
   2.200000      2.0856371E-38
   2.210000      2.1878833E-38
   2.220000      2.3362730E-38
   2.230000      2.4779012E-38
   2.240000      2.5596591E-38
   2.250000      2.6295268E-38
   2.260000      2.6848960E-38
   2.270000      2.6818714E-38
   2.280000      2.3792324E-38
   2.290000      1.7528840E-38
   2.300000      0.0000000E+00
   2.310000      0.0000000E+00
   2.320000      0.0000000E+00
   2.330000     -2.1897001E-38
   2.340000     -3.3471009E-38
   2.350000     -4.4862114E-38
   2.360000     -5.5734320E-38
   2.370000     -6.5171000E-38
   2.380000     -7.3640280E-38
   2.390000     -8.1684092E-38
   2.400000     -8.8821208E-38
   2.410000     -9.6161775E-38
   2.420000     -1.0291166E-37
   2.430000     -1.0700000E-37
   2.440000     -1.0956322E-37
   2.450000     -1.1267668E-37
   2.460000     -1.1685543E-37
   2.470000     -1.2204789E-37
   2.480000     -1.2647207E-37
   2.490000     -1.2922406E-37
   2.500000     -1.3118603E-37
   2.510000     -1.3147736E-37
   2.520000     -1.3006720E-37
   2.530000     -1.2822999E-37
   2.540000     -1.2798734E-37
   2.550000     -1.2776245E-37
   2.560000     -1.2449884E-37
   2.570000     -1.1592441E-37
   2.580000     -8.7430223E-38
   2.590000     -3.9788516E-38
   2.600000      1.7108585E-38
   2.610000      8.4442778E-38
   2.620000      1.5702157E-37
   2.630000      2.3362435E-37
   2.640000      3.1662814E-37
   2.650000      4.0117242E-37
   2.660000      4.8511137E-37
   2.670000      5.6932313E-37
   2.680000      6.5592517E-37
   2.690000      7.5042712E-37
   2.700000      8.5021867E-37
   2.710000      9.4857619E-37
   2.720000      1.0286228E-36
   2.730000      1.0876714E-36
   2.740000      1.1490554E-36
   2.750000      1.2155680E-36
   2.760000      1.1740473E-36
   2.770000      1.0147263E-36
   2.780000      8.9450320E-37
   2.790000      8.2504848E-37
   2.800000      8.7697599E-37
   2.810000      1.0668404E-36
   2.820000      1.2303583E-36
   2.830000      1.3384565E-36
   2.840000      1.3798186E-36
   2.850000      1.3557690E-36
   2.860000      1.3804653E-36
   2.870000      1.4747903E-36
   2.880000      1.6102823E-36
   2.890000      1.7815376E-36
   2.900000      1.8339310E-36
   2.910000      1.7357255E-36
   2.920000      1.6041428E-36
   2.930000      1.4190901E-36
   2.940000      1.1386978E-36
   2.950000      7.7705224E-37
   2.960000      3.0716312E-37
   2.970000     -3.3980506E-37
   2.980000     -1.1600815E-36
   2.990000     -2.1177531E-36
   3.000000     -3.1891397E-36
   3.010000     -4.3117939E-36
   3.020000     -5.4869833E-36
   3.030000     -6.6973525E-36
   3.040000     -7.8881719E-36
   3.050000     -9.0373633E-36
   3.060000     -1.0176596E-35
   3.070000     -1.1594444E-35
   3.080000     -1.3286364E-35
   3.090000     -1.5016566E-35
   3.100000     -1.6813421E-35
   3.110000     -1.8820416E-35
   3.120000     -2.1043141E-35
   3.130000     -2.3345810E-35
   3.140000     -2.5286666E-35
   3.150000     -2.6847146E-35
   3.160000     -2.7446361E-35
   3.170000     -2.6792010E-35
   3.180000     -2.5558723E-35
   3.190000     -2.3795128E-35
   3.200000     -2.1593406E-35
   3.210000     -1.9159637E-35
   3.220000     -1.6495153E-35
   3.230000     -1.3446340E-35
   3.240000     -1.0164414E-35
   3.250000     -6.7850030E-36
   3.260000     -3.3047914E-36
   3.270000      1.7024473E-37
   3.280000      3.6249397E-36
   3.290000      7.1269382E-36
   3.300000      1.0633014E-35
   3.310000      1.4015580E-35
   3.320000      1.5096184E-35
   3.330000      1.3919881E-35
   3.340000      1.2777410E-35
   3.350000      1.1790944E-35
   3.360000      1.0891460E-35
   3.370000      1.2277510E-35
   3.380000      1.6353662E-35
   3.390000      2.2371237E-35
   3.400000      3.0873561E-35
   3.410000      4.0691215E-35
   3.420000      5.1468222E-35
   3.430000      6.3736366E-35
   3.440000      7.7663695E-35
   3.450000      9.5549944E-35
   3.460000      1.1742678E-34
   3.470000      1.4090446E-34
   3.480000      1.6602627E-34
   3.490000      1.9162732E-34
   3.500000      2.1331519E-34
   3.510000      2.3082804E-34
   3.520000      2.4532951E-34
   3.530000      2.5602389E-34
   3.540000      2.6386255E-34
   3.550000      2.6888451E-34
   3.560000      2.7228899E-34
   3.570000      2.7273427E-34
   3.580000      2.6884382E-34
   3.590000      2.6172751E-34
   3.600000      2.5193833E-34
   3.610000      2.4037062E-34
   3.620000      2.2700727E-34
   3.630000      2.1066948E-34
   3.640000      1.9083203E-34
   3.650000      1.6770206E-34
   3.660000      1.4007662E-34
   3.670000      1.0877142E-34
   3.680000      7.5546881E-35
   3.690000      4.1127264E-35
   3.700000      4.5437782E-36
   3.710000     -3.6091947E-35
   3.720000     -8.0879510E-35
   3.730000     -1.3015086E-34
   3.740000     -1.8150755E-34
   3.750000     -2.3317021E-34
   3.760000     -2.8641322E-34
   3.770000     -3.4205318E-34
   3.780000     -4.0095231E-34
   3.790000     -4.6261295E-34
   3.800000     -5.2670527E-34
   3.810000     -5.9070735E-34
   3.820000     -6.5689650E-34
   3.830000     -7.2954830E-34
   3.840000     -8.0447536E-34
   3.850000     -8.8019245E-34
   3.860000     -9.5650471E-34
   3.870000     -1.0329907E-33
   3.880000     -1.1112990E-33
   3.890000     -1.1908976E-33
   3.900000     -1.2691307E-33
   3.910000     -1.3459487E-33
   3.920000     -1.4231252E-33
   3.930000     -1.4983429E-33
   3.940000     -1.5687738E-33
   3.950000     -1.6330333E-33
   3.960000     -1.6894692E-33
   3.970000     -1.7370928E-33
   3.980000     -1.7748528E-33
   3.990000     -1.8008250E-33
   4.000000     -1.8132605E-33
   4.010000     -1.8110704E-33
   4.020000     -1.7933731E-33
   4.030000     -1.7588384E-33
   4.040000     -1.7058102E-33
   4.050000     -1.6356796E-33
   4.060000     -1.5476009E-33
   4.070000     -1.4384625E-33
   4.080000     -1.3081618E-33
   4.090000     -1.1541907E-33
   4.100000     -9.7714052E-34
   4.110000     -7.7777419E-34
   4.120000     -5.5407261E-34
   4.130000     -3.0779016E-34
   4.140000     -3.9471565E-35
   4.150000      2.5254337E-34
   4.160000      5.6624752E-34
   4.170000      8.9992945E-34
   4.180000      1.2533720E-33
   4.190000      1.6247402E-33
   4.200000      2.0167084E-33
   4.210000      2.4297303E-33
   4.220000      2.8605054E-33
   4.230000      3.3100797E-33
   4.240000      3.7768409E-33
   4.250000      4.2600573E-33
   4.260000      4.7601519E-33
   4.270000      5.2738936E-33
   4.280000      5.7981751E-33
   4.290000      6.3310326E-33
   4.300000      6.8709650E-33
   4.310000      7.4147392E-33
   4.320000      7.9592223E-33
   4.330000      8.5007358E-33
   4.340000      9.0367715E-33
   4.350000      9.5635296E-33
   4.360000      1.0075514E-32
   4.370000      1.0568072E-32
   4.380000      1.1035373E-32
   4.390000      1.1472014E-32
   4.400000      1.1872816E-32
   4.410000      1.2230333E-32
   4.420000      1.2536837E-32
   4.430000      1.2785784E-32
   4.440000      1.2969263E-32
   4.450000      1.3081799E-32
   4.460000      1.3119061E-32
   4.470000      1.3073307E-32
   4.480000      1.2935753E-32
   4.490000      1.2698754E-32
   4.500000      1.2355399E-32
   4.510000      1.1899090E-32
   4.520000      1.1324444E-32
   4.530000      1.0624825E-32
   4.540000      9.7949573E-33
   4.550000      8.8310490E-33
   4.560000      7.7283346E-33
   4.570000      6.4832304E-33
   4.580000      5.0922974E-33
   4.590000      3.5508753E-33
   4.600000      1.8564099E-33
   4.610000      1.1033592E-35
   4.620000     -1.9890762E-33
   4.630000     -4.1445110E-33
   4.640000     -6.4542861E-33
   4.650000     -8.9190524E-33
   4.660000     -1.1534064E-32
   4.670000     -1.4298468E-32
   4.680000     -1.7209619E-32
   4.690000     -2.0260516E-32
   4.700000     -2.3444778E-32
   4.710000     -2.6755559E-32
   4.720000     -3.0183092E-32
   4.730000     -3.3716566E-32
   4.740000     -3.7344600E-32
   4.750000     -4.1053782E-32
   4.760000     -4.4828529E-32
   4.770000     -4.8651542E-32
   4.780000     -5.2503720E-32
   4.790000     -5.6364566E-32
   4.800000     -6.0210942E-32
   4.810000     -6.4016976E-32
   4.820000     -6.7756047E-32
   4.830000     -7.1400456E-32
   4.840000     -7.4919903E-32
   4.850000     -7.8282011E-32
   4.860000     -8.1453066E-32
   4.870000     -8.4397732E-32
   4.880000     -8.7079381E-32
   4.890000     -8.9460422E-32
   4.900000     -9.1501450E-32
   4.910000     -9.3161824E-32
   4.920000     -9.4400860E-32
   4.930000     -9.5176880E-32
   4.940000     -9.5447632E-32
   4.950000     -9.5170503E-32
   4.960000     -9.4303264E-32
   4.970000     -9.2802899E-32
   4.980000     -9.0626042E-32
   4.990000     -8.7731005E-32
   5.000000     -8.4076575E-32
   5.010000     -7.9624091E-32
   5.020000     -7.4335659E-32
   5.030000     -6.8173036E-32
   5.040000     -6.1100051E-32
   5.050000     -5.3083174E-32
   5.060000     -4.4091177E-32
   5.070000     -3.4095587E-32
   5.080000     -2.3071281E-32
   5.090000     -1.0996573E-32
   5.100000      2.1462371E-33
   5.110000      1.6370804E-32
   5.120000      3.1685577E-32
   5.130000      4.8094014E-32
   5.140000      6.5592667E-32
   5.150000      8.4171714E-32
   5.160000      1.0381549E-31
   5.170000      1.2450084E-31
   5.180000      1.4619724E-31
   5.190000      1.6886487E-31
   5.200000      1.9245556E-31
   5.210000      2.1691296E-31
   5.220000      2.4217090E-31
   5.230000      2.6815377E-31
   5.240000      2.9477604E-31
   5.250000      3.2194181E-31
   5.260000      3.4954484E-31
   5.270000      3.7746826E-31
   5.280000      4.0558406E-31
   5.290000      4.3375379E-31
   5.300000      4.6182808E-31
   5.310000      4.8964597E-31
   5.320000      5.1703541E-31
   5.330000      5.4381383E-31
   5.340000      5.6978708E-31
   5.350000      5.9475007E-31
   5.360000      6.1848814E-31
   5.370000      6.4077617E-31
   5.380000      6.6137840E-31
   5.390000      6.8004986E-31
   5.400000      6.9653636E-31
   5.410000      7.1057519E-31
   5.420000      7.2189548E-31
   5.430000      7.3021925E-31
   5.440000      7.3526180E-31
   5.450000      7.3673271E-31
   5.460000      7.3433734E-31
   5.470000      7.2777742E-31
   5.480000      7.1675256E-31
   5.490000      7.0096134E-31
   5.500000      6.8010313E-31
   5.510000      6.5387964E-31
   5.520000      6.2199638E-31
   5.530000      5.8416483E-31
   5.540000      5.4010411E-31
   5.550000      4.8954323E-31
   5.560000      4.3222321E-31
   5.570000      3.6789893E-31
   5.580000      2.9634161E-31
   5.590000      2.1734112E-31
   5.600000      1.3070847E-31
   5.610000      3.6278077E-32
   5.620000     -6.6089866E-32
   5.630000     -1.7650672E-31
   5.640000     -2.9505270E-31
   5.650000     -4.2177466E-31
   5.660000     -5.5668304E-31
   5.670000     -6.9974926E-31
   5.680000     -8.5090340E-31
   5.690000     -1.0100309E-30
   5.700000     -1.1769702E-30
   5.710000     -1.3515097E-30
   5.720000     -1.5333846E-30
   5.730000     -1.7222751E-30
   5.740000     -1.9178029E-30
   5.750000     -2.1195284E-30
   5.760000     -2.3269490E-30
   5.770000     -2.5394953E-30
   5.780000     -2.7565294E-30
   5.790000     -2.9773417E-30
   5.800000     -3.2011502E-30
   5.810000     -3.4270964E-30
   5.820000     -3.6542459E-30
   5.830000     -3.8815847E-30
   5.840000     -4.1080187E-30
   5.850000     -4.3323730E-30
   5.860000     -4.5533912E-30
   5.870000     -4.7697340E-30
   5.880000     -4.9799816E-30
   5.890000     -5.1826312E-30
   5.900000     -5.3761007E-30
   5.910000     -5.5587281E-30
   5.920000     -5.7287742E-30
   5.930000     -5.8844243E-30
   5.940000     -6.0237916E-30
   5.950000     -6.1449202E-30
   5.960000     -6.2457893E-30
   5.970000     -6.3243168E-30
   5.980000     -6.3783633E-30
   5.990000     -6.4057393E-30
   6.000000     -6.4042106E-30
   6.010000     -6.3715036E-30
   6.020000     -6.3053122E-30
   6.030000     -6.2033052E-30
   6.040000     -6.0631374E-30
   6.050000     -5.8824547E-30
   6.060000     -5.6589069E-30
   6.070000     -5.3901547E-30
   6.080000     -5.0738839E-30
   6.090000     -4.7078146E-30
   6.100000     -4.2897159E-30
   6.110000     -3.8174188E-30
   6.120000     -3.2888301E-30
   6.130000     -2.7019477E-30
   6.140000     -2.0548766E-30
   6.150000     -1.3458474E-30
   6.160000     -5.7323259E-31
   6.170000      2.6443587E-31
   6.180000      1.1684455E-30
   6.190000      2.1398846E-30
   6.200000      3.1796197E-30
   6.210000      4.2882771E-30
   6.220000      5.4662214E-30
   6.230000      6.7135300E-30
   6.240000      8.0299761E-30
   6.250000      9.4150018E-30
   6.260000      1.0867698E-29
   6.270000      1.2386780E-29
   6.280000      1.3970569E-29
   6.290000      1.5616967E-29
   6.300000      1.7323433E-29
   6.310000      1.9086962E-29
   6.320000      2.0904068E-29
   6.330000      2.2770754E-29
   6.340000      2.4682502E-29
   6.350000      2.6634245E-29
   6.360000      2.8620354E-29
   6.370000      3.0634621E-29
   6.380000      3.2670227E-29
   6.390000      3.4719750E-29
   6.400000      3.6775127E-29
   6.410000      3.8827650E-29
   6.420000      4.0867966E-29
   6.430000      4.2886039E-29
   6.440000      4.4871164E-29
   6.450000      4.6811960E-29
   6.460000      4.8696347E-29
   6.470000      5.0511563E-29
   6.480000      5.2244166E-29
   6.490000      5.3880015E-29
   6.500000      5.5404316E-29
   6.510000      5.6801596E-29
   6.520000      5.8055756E-29
   6.530000      5.9150057E-29
   6.540000      6.0067161E-29
   6.550000      6.0789162E-29
   6.560000      6.1297620E-29
   6.570000      6.1573587E-29
   6.580000      6.1597685E-29
   6.590000      6.1350113E-29
   6.600000      6.0810732E-29
   6.610000      5.9959122E-29
   6.620000      5.8774639E-29
   6.630000      5.7236507E-29
   6.640000      5.5323866E-29
   6.650000      5.3015898E-29
   6.660000      5.0291884E-29
   6.670000      4.7131297E-29
   6.680000      4.3513929E-29
   6.690000      3.9420006E-29
   6.700000      3.4830265E-29
   6.710000      2.9726097E-29
   6.720000      2.4089660E-29
   6.730000      1.7904044E-29
   6.740000      1.1153381E-29
   6.750000      3.8229871E-30
   6.760000     -4.1004715E-30
   6.770000     -1.2628840E-29
   6.780000     -2.1772293E-29
   6.790000     -3.1539179E-29
   6.800000     -4.1935846E-29
   6.810000     -5.2966456E-29
   6.820000     -6.4632813E-29
   6.830000     -7.6934161E-29
   6.840000     -8.9867003E-29
   6.850000     -1.0342488E-28
   6.860000     -1.1759825E-28
   6.870000     -1.3237417E-28
   6.880000     -1.4773621E-28
   6.890000     -1.6366417E-28
   6.900000     -1.8013391E-28
   6.910000     -1.9711720E-28
   6.920000     -2.1458146E-28
   6.930000     -2.3248955E-28
   6.940000     -2.5079970E-28
   6.950000     -2.6946521E-28
   6.960000     -2.8843430E-28
   6.970000     -3.0765005E-28
   6.980000     -3.2705013E-28
   6.990000     -3.4656676E-28
   7.000000     -3.6612648E-28
   7.010000     -3.8565016E-28
   7.020000     -4.0505277E-28
   7.030000     -4.2424346E-28
   7.040000     -4.4312528E-28
   7.050000     -4.6159529E-28
   7.060000     -4.7954466E-28