  -2.600000      0.0000000E+00
  -2.590000      0.0000000E+00
  -2.580000      0.0000000E+00
  -2.570000      0.0000000E+00
  -2.560000      0.0000000E+00
  -2.550000      0.0000000E+00
  -2.540000      0.0000000E+00
  -2.530000      0.0000000E+00
  -2.520000      0.0000000E+00
  -2.510000      0.0000000E+00
  -2.500000      0.0000000E+00
  -2.490000      0.0000000E+00
  -2.480000      0.0000000E+00
  -2.470000      0.0000000E+00
  -2.460000      0.0000000E+00
  -2.450000      0.0000000E+00
  -2.440000      0.0000000E+00
  -2.430000      0.0000000E+00
  -2.420000      0.0000000E+00
  -2.410000      0.0000000E+00
  -2.400000      0.0000000E+00
  -2.390000      0.0000000E+00
  -2.380000      0.0000000E+00
  -2.370000      0.0000000E+00
  -2.360000      0.0000000E+00
  -2.350000      0.0000000E+00
  -2.340000      0.0000000E+00
  -2.330000      0.0000000E+00
  -2.320000      0.0000000E+00
  -2.310000      0.0000000E+00
  -2.300000      0.0000000E+00
  -2.290000      0.0000000E+00
  -2.280000      0.0000000E+00
  -2.270000      0.0000000E+00
  -2.260000      0.0000000E+00
  -2.250000      0.0000000E+00
  -2.240000      0.0000000E+00
  -2.230000      0.0000000E+00
  -2.220000      0.0000000E+00
  -2.210000      0.0000000E+00
  -2.200000      0.0000000E+00
  -2.190000      0.0000000E+00
  -2.180000      0.0000000E+00
  -2.170000      0.0000000E+00
  -2.160000      0.0000000E+00
  -2.150000      0.0000000E+00
  -2.140000      0.0000000E+00
  -2.130000      0.0000000E+00
  -2.120000      0.0000000E+00
  -2.110000      0.0000000E+00
  -2.100000      0.0000000E+00
  -2.090000      0.0000000E+00
  -2.080000      0.0000000E+00
  -2.070000      0.0000000E+00
  -2.060000      0.0000000E+00
  -2.050000      0.0000000E+00
  -2.040000      0.0000000E+00
  -2.030000      0.0000000E+00
  -2.020000      0.0000000E+00
  -2.010000      0.0000000E+00
  -2.000000      0.0000000E+00
  -1.990000      0.0000000E+00
  -1.980000      0.0000000E+00
  -1.970000      0.0000000E+00
  -1.960000      0.0000000E+00
  -1.950000      0.0000000E+00
  -1.940000      0.0000000E+00
  -1.930000      0.0000000E+00
  -1.920000      0.0000000E+00
  -1.910000      0.0000000E+00
  -1.900000      0.0000000E+00
  -1.890000      0.0000000E+00
  -1.880000      0.0000000E+00
  -1.870000      0.0000000E+00
  -1.860000      0.0000000E+00
  -1.850000      0.0000000E+00
  -1.840000      0.0000000E+00
  -1.830000      0.0000000E+00
  -1.820000      0.0000000E+00
  -1.810000      0.0000000E+00
  -1.800000      0.0000000E+00
  -1.790000      0.0000000E+00
  -1.780000      0.0000000E+00
  -1.770000      0.0000000E+00
  -1.760000      0.0000000E+00
  -1.750000      0.0000000E+00
  -1.740000      0.0000000E+00
  -1.730000      0.0000000E+00
  -1.720000      0.0000000E+00
  -1.710000      0.0000000E+00
  -1.700000      0.0000000E+00
  -1.690000      0.0000000E+00
  -1.680000      0.0000000E+00
  -1.670000      0.0000000E+00
  -1.660000      0.0000000E+00
  -1.650000      0.0000000E+00
  -1.640000      0.0000000E+00
  -1.630000      0.0000000E+00
  -1.620000      0.0000000E+00
  -1.610000      0.0000000E+00
  -1.600000      0.0000000E+00
  -1.590000      0.0000000E+00
  -1.580000      0.0000000E+00
  -1.570000      0.0000000E+00
  -1.560000      0.0000000E+00
  -1.550000      0.0000000E+00
  -1.540000      0.0000000E+00
  -1.530000      0.0000000E+00
  -1.520000      0.0000000E+00
  -1.510000      0.0000000E+00
  -1.500000      0.0000000E+00
  -1.490000      0.0000000E+00
  -1.480000      0.0000000E+00
  -1.470000      0.0000000E+00
  -1.460000      0.0000000E+00
  -1.450000      0.0000000E+00
  -1.440000      0.0000000E+00
  -1.430000      0.0000000E+00
  -1.420000      0.0000000E+00
  -1.410000      0.0000000E+00
  -1.400000      0.0000000E+00
  -1.390000      0.0000000E+00
  -1.380000      0.0000000E+00
  -1.370000      0.0000000E+00
  -1.360000      0.0000000E+00
  -1.350000      0.0000000E+00
  -1.340000      0.0000000E+00
  -1.330000      0.0000000E+00
  -1.320000      0.0000000E+00
  -1.310000      0.0000000E+00
  -1.300000      0.0000000E+00
  -1.290000      0.0000000E+00
  -1.280000      0.0000000E+00
  -1.270000      0.0000000E+00
  -1.260000      0.0000000E+00
  -1.250000      0.0000000E+00
  -1.240000      0.0000000E+00
  -1.230000      0.0000000E+00
  -1.220000      0.0000000E+00
  -1.210000      0.0000000E+00
  -1.200000      0.0000000E+00
  -1.190000      0.0000000E+00
  -1.180000      0.0000000E+00
  -1.170000      0.0000000E+00
  -1.160000      0.0000000E+00
  -1.150000      0.0000000E+00
  -1.140000      0.0000000E+00
  -1.130000      0.0000000E+00
  -1.120000      0.0000000E+00
  -1.110000      0.0000000E+00
  -1.100000      0.0000000E+00
  -1.090000      0.0000000E+00
  -1.080000      0.0000000E+00
  -1.070000      0.0000000E+00
  -1.060000      0.0000000E+00
  -1.050000      0.0000000E+00
  -1.040000      0.0000000E+00
  -1.030000      0.0000000E+00
  -1.020000      0.0000000E+00
  -1.010000      0.0000000E+00
  -1.000000      0.0000000E+00
 -0.9900000      0.0000000E+00
 -0.9800000      0.0000000E+00
 -0.9700000      0.0000000E+00
 -0.9600000      0.0000000E+00
 -0.9500000      0.0000000E+00
 -0.9400000      0.0000000E+00
 -0.9300000      0.0000000E+00
 -0.9200000      0.0000000E+00
 -0.9100000      0.0000000E+00
 -0.9000000      0.0000000E+00
 -0.8900000      0.0000000E+00
 -0.8800000      0.0000000E+00
 -0.8700000      0.0000000E+00
 -0.8600000      0.0000000E+00
 -0.8500000      0.0000000E+00
 -0.8400000      0.0000000E+00
 -0.8300000      0.0000000E+00
 -0.8200000      0.0000000E+00
 -0.8100000      0.0000000E+00
 -0.8000000      0.0000000E+00
 -0.7900000      0.0000000E+00
 -0.7800000      0.0000000E+00
 -0.7700000      0.0000000E+00
 -0.7600000      0.0000000E+00
 -0.7500000      0.0000000E+00
 -0.7400000      0.0000000E+00
 -0.7300000      0.0000000E+00
 -0.7200000      0.0000000E+00
 -0.7100000      0.0000000E+00
 -0.7000000      0.0000000E+00
 -0.6900000      0.0000000E+00
 -0.6800000      0.0000000E+00
 -0.6700000      0.0000000E+00
 -0.6600000      0.0000000E+00
 -0.6500000      0.0000000E+00
 -0.6400000      0.0000000E+00
 -0.6300000      0.0000000E+00
 -0.6200000      0.0000000E+00
 -0.6100000      0.0000000E+00
 -0.6000000      0.0000000E+00
 -0.5900000      0.0000000E+00
 -0.5800000      0.0000000E+00
 -0.5700000      0.0000000E+00
 -0.5600000      0.0000000E+00
 -0.5500000      0.0000000E+00
 -0.5400000      0.0000000E+00
 -0.5300000      0.0000000E+00
 -0.5200000      0.0000000E+00
 -0.5100000      0.0000000E+00
 -0.5000000      0.0000000E+00
 -0.4900000      0.0000000E+00
 -0.4800000      0.0000000E+00
 -0.4700000      0.0000000E+00
 -0.4600000      0.0000000E+00
 -0.4500000      0.0000000E+00
 -0.4400000      0.0000000E+00
 -0.4300000      0.0000000E+00
 -0.4200000      0.0000000E+00
 -0.4100000      0.0000000E+00
 -0.4000000      0.0000000E+00
 -0.3900000      0.0000000E+00
 -0.3800000      0.0000000E+00
 -0.3700000      0.0000000E+00
 -0.3600000      0.0000000E+00
 -0.3500000      0.0000000E+00
 -0.3400000      0.0000000E+00
 -0.3300000      0.0000000E+00
 -0.3200000      0.0000000E+00
 -0.3100000      0.0000000E+00
 -0.3000000      0.0000000E+00
 -0.2900000      0.0000000E+00
 -0.2800000      0.0000000E+00
 -0.2700000      0.0000000E+00
 -0.2600000      0.0000000E+00
 -0.2500000      0.0000000E+00
 -0.2400000      0.0000000E+00
 -0.2300000      0.0000000E+00
 -0.2200000      0.0000000E+00
 -0.2100000      0.0000000E+00
 -0.2000000      0.0000000E+00
 -0.1900000      0.0000000E+00
 -0.1800000      0.0000000E+00
 -0.1700000      0.0000000E+00
 -0.1600000      0.0000000E+00
 -0.1500000      0.0000000E+00
 -0.1400000      0.0000000E+00
 -0.1300000      0.0000000E+00
 -0.1200000      0.0000000E+00
 -0.1100000      0.0000000E+00
 -0.1000000      0.0000000E+00
 -9.0000004E-02  0.0000000E+00
 -7.9999998E-02  0.0000000E+00
 -7.0000000E-02  0.0000000E+00
 -5.9999999E-02  0.0000000E+00
 -5.0000001E-02  0.0000000E+00
 -3.9999999E-02  0.0000000E+00
 -2.9999999E-02  0.0000000E+00
 -2.0000000E-02  0.0000000E+00
 -9.9999998E-03  0.0000000E+00
 -3.4694470E-17  0.0000000E+00
  9.9999998E-03  0.0000000E+00
  2.0000000E-02  0.0000000E+00
  2.9999999E-02  0.0000000E+00
  3.9999999E-02  0.0000000E+00
  5.0000001E-02  0.0000000E+00
  5.9999999E-02  0.0000000E+00
  7.0000000E-02  0.0000000E+00
  7.9999998E-02  0.0000000E+00
  9.0000004E-02  0.0000000E+00
  0.1000000      0.0000000E+00
  0.1100000      0.0000000E+00
  0.1200000      0.0000000E+00
  0.1300000      0.0000000E+00
  0.1400000      0.0000000E+00
  0.1500000      0.0000000E+00
  0.1600000      0.0000000E+00
  0.1700000      0.0000000E+00
  0.1800000      0.0000000E+00
  0.1900000      0.0000000E+00
  0.2000000      0.0000000E+00
  0.2100000      0.0000000E+00
  0.2200000      0.0000000E+00
  0.2300000      0.0000000E+00
  0.2400000      0.0000000E+00
  0.2500000      0.0000000E+00
  0.2600000      0.0000000E+00
  0.2700000      0.0000000E+00
  0.2800000      0.0000000E+00
  0.2900000      0.0000000E+00
  0.3000000      0.0000000E+00
  0.3100000      0.0000000E+00
  0.3200000      0.0000000E+00
  0.3300000      0.0000000E+00
  0.3400000      0.0000000E+00
  0.3500000      0.0000000E+00
  0.3600000      0.0000000E+00
  0.3700000      0.0000000E+00
  0.3800000      0.0000000E+00
  0.3900000      0.0000000E+00
  0.4000000      0.0000000E+00
  0.4100000      0.0000000E+00
  0.4200000      0.0000000E+00
  0.4300000      0.0000000E+00
  0.4400000      0.0000000E+00
  0.4500000      0.0000000E+00
  0.4600000      0.0000000E+00
  0.4700000      0.0000000E+00
  0.4800000      0.0000000E+00
  0.4900000      0.0000000E+00
  0.5000000      0.0000000E+00
  0.5100000      0.0000000E+00
  0.5200000      0.0000000E+00
  0.5300000      0.0000000E+00
  0.5400000      0.0000000E+00
  0.5500000      0.0000000E+00
  0.5600000      0.0000000E+00
  0.5700000      0.0000000E+00
  0.5800000      0.0000000E+00
  0.5900000      0.0000000E+00
  0.6000000      0.0000000E+00
  0.6100000      0.0000000E+00
  0.6200000      0.0000000E+00
  0.6300000      0.0000000E+00
  0.6400000      0.0000000E+00
  0.6500000      0.0000000E+00
  0.6600000      0.0000000E+00
  0.6700000      0.0000000E+00
  0.6800000      0.0000000E+00
  0.6900000      0.0000000E+00
  0.7000000      0.0000000E+00
  0.7100000      0.0000000E+00
  0.7200000      0.0000000E+00
  0.7300000      0.0000000E+00
  0.7400000      0.0000000E+00
  0.7500000      0.0000000E+00
  0.7600000      0.0000000E+00
  0.7700000      0.0000000E+00
  0.7800000      0.0000000E+00
  0.7900000      0.0000000E+00
  0.8000000      0.0000000E+00
  0.8100000      0.0000000E+00
  0.8200000      0.0000000E+00
  0.8300000      0.0000000E+00
  0.8400000      0.0000000E+00
  0.8500000      0.0000000E+00
  0.8600000      0.0000000E+00
  0.8700000      0.0000000E+00
  0.8800000      0.0000000E+00
  0.8900000      0.0000000E+00
  0.9000000      0.0000000E+00
  0.9100000      0.0000000E+00
  0.9200000      0.0000000E+00
  0.9300000      0.0000000E+00
  0.9400000      0.0000000E+00
  0.9500000      0.0000000E+00
  0.9600000      0.0000000E+00
  0.9700000      0.0000000E+00
  0.9800000      0.0000000E+00
  0.9900000      0.0000000E+00
   1.000000      0.0000000E+00
   1.010000      0.0000000E+00
   1.020000      0.0000000E+00
   1.030000      0.0000000E+00
   1.040000      0.0000000E+00
   1.050000      0.0000000E+00
   1.060000      0.0000000E+00
   1.070000      0.0000000E+00
   1.080000      0.0000000E+00
   1.090000      0.0000000E+00
   1.100000      0.0000000E+00
   1.110000      0.0000000E+00
   1.120000      0.0000000E+00
   1.130000      0.0000000E+00
   1.140000      0.0000000E+00
   1.150000      0.0000000E+00
   1.160000      0.0000000E+00
   1.170000      0.0000000E+00
   1.180000      0.0000000E+00
   1.190000      0.0000000E+00
   1.200000      0.0000000E+00
   1.210000      0.0000000E+00
   1.220000      0.0000000E+00
   1.230000      0.0000000E+00
   1.240000      0.0000000E+00
   1.250000      0.0000000E+00
   1.260000      0.0000000E+00
   1.270000      0.0000000E+00
   1.280000      0.0000000E+00
   1.290000      0.0000000E+00
   1.300000      0.0000000E+00
   1.310000      0.0000000E+00
   1.320000      0.0000000E+00
   1.330000      0.0000000E+00
   1.340000      0.0000000E+00
   1.350000      0.0000000E+00
   1.360000      0.0000000E+00
   1.370000      0.0000000E+00
   1.380000      0.0000000E+00
   1.390000      0.0000000E+00
   1.400000      0.0000000E+00
   1.410000      0.0000000E+00
   1.420000      0.0000000E+00
   1.430000      0.0000000E+00
   1.440000      0.0000000E+00
   1.450000      0.0000000E+00
   1.460000      0.0000000E+00
   1.470000      0.0000000E+00
   1.480000      0.0000000E+00
   1.490000      0.0000000E+00
   1.500000      0.0000000E+00
   1.510000      0.0000000E+00
   1.520000      0.0000000E+00
   1.530000      0.0000000E+00
   1.540000      0.0000000E+00
   1.550000      0.0000000E+00
   1.560000      0.0000000E+00
   1.570000      0.0000000E+00
   1.580000      0.0000000E+00
   1.590000      0.0000000E+00
   1.600000      0.0000000E+00
   1.610000      0.0000000E+00
   1.620000      0.0000000E+00
   1.630000      0.0000000E+00
   1.640000      0.0000000E+00
   1.650000      0.0000000E+00
   1.660000      0.0000000E+00
   1.670000      0.0000000E+00
   1.680000      0.0000000E+00
   1.690000      0.0000000E+00
   1.700000      0.0000000E+00
   1.710000      0.0000000E+00
   1.720000      0.0000000E+00
   1.730000      0.0000000E+00
   1.740000      0.0000000E+00
   1.750000      0.0000000E+00
   1.760000      0.0000000E+00
   1.770000      0.0000000E+00
   1.780000      0.0000000E+00
   1.790000      0.0000000E+00
   1.800000      0.0000000E+00
   1.810000      0.0000000E+00
   1.820000      0.0000000E+00
   1.830000      0.0000000E+00
   1.840000      0.0000000E+00
   1.850000      0.0000000E+00
   1.860000      0.0000000E+00
   1.870000      0.0000000E+00
   1.880000      0.0000000E+00
   1.890000      0.0000000E+00
   1.900000      0.0000000E+00
   1.910000      0.0000000E+00
   1.920000      0.0000000E+00
   1.930000      0.0000000E+00
   1.940000      0.0000000E+00
   1.950000      0.0000000E+00
   1.960000      0.0000000E+00
   1.970000      0.0000000E+00
   1.980000      0.0000000E+00
   1.990000      0.0000000E+00
   2.000000      0.0000000E+00
   2.010000      0.0000000E+00
   2.020000      0.0000000E+00
   2.030000      0.0000000E+00
   2.040000      0.0000000E+00
   2.050000      0.0000000E+00
   2.060000      0.0000000E+00
   2.070000      0.0000000E+00
   2.080000      0.0000000E+00
   2.090000      0.0000000E+00
   2.100000      0.0000000E+00
   2.110000      0.0000000E+00
   2.120000      0.0000000E+00
   2.130000      0.0000000E+00
   2.140000      0.0000000E+00
   2.150000      0.0000000E+00
   2.160000      0.0000000E+00
   2.170000      0.0000000E+00
   2.180000      0.0000000E+00
   2.190000      0.0000000E+00
   2.200000      0.0000000E+00
   2.210000      0.0000000E+00
   2.220000      0.0000000E+00
   2.230000      0.0000000E+00
   2.240000      1.2448362E-38
   2.250000      1.3523623E-38
   2.260000      1.4328153E-38
   2.270000      1.4716235E-38
   2.280000      1.4782701E-38
   2.290000      1.3846342E-38
   2.300000      0.0000000E+00
   2.310000      0.0000000E+00
   2.320000      0.0000000E+00
   2.330000      0.0000000E+00
   2.340000      0.0000000E+00
   2.350000      0.0000000E+00
   2.360000     -1.6762572E-38
   2.370000     -2.3581886E-38
   2.380000     -3.1110449E-38
   2.390000     -4.0348029E-38
   2.400000     -4.8913377E-38
   2.410000     -5.5507478E-38
   2.420000     -6.2607527E-38
   2.430000     -7.0495514E-38
   2.440000     -8.0023167E-38
   2.450000     -9.2402450E-38
   2.460000     -1.0693306E-37
   2.470000     -1.2239375E-37
   2.480000     -1.3902006E-37
   2.490000     -1.5674947E-37
   2.500000     -1.7534328E-37
   2.510000     -1.9310619E-37
   2.520000     -2.0928648E-37
   2.530000     -2.2510905E-37
   2.540000     -2.4060156E-37
   2.550000     -2.5380230E-37
   2.560000     -2.6487675E-37
   2.570000     -2.7352873E-37
   2.580000     -2.6720221E-37
   2.590000     -2.4207310E-37
   2.600000     -2.0762813E-37
   2.610000     -1.6555104E-37
   2.620000     -1.1537558E-37
   2.630000     -5.8693246E-38
   2.640000      0.0000000E+00
   2.650000      7.2648688E-38
   2.660000      1.4477722E-37
   2.670000      2.2167625E-37
   2.680000      3.3913766E-37
   2.690000      4.6897505E-37
   2.700000      5.7808212E-37
   2.710000      7.1499319E-37
   2.720000      8.8349299E-37
   2.730000      1.0998493E-36
   2.740000      1.3486272E-36
   2.750000      1.5945799E-36
   2.760000      1.8374087E-36
   2.770000      2.0780306E-36
   2.780000      2.3274150E-36
   2.790000      2.5036148E-36
   2.800000      2.6173375E-36
   2.810000      2.7334923E-36
   2.820000      2.8207775E-36
   2.830000      2.8496458E-36
   2.840000      2.7887825E-36
   2.850000      2.6539090E-36
   2.860000      2.4722116E-36
   2.870000      2.2117575E-36
   2.880000      1.8801359E-36
   2.890000      1.4872481E-36
   2.900000      9.7967121E-37
   2.910000      2.8838965E-37
   2.920000     -5.6825693E-37
   2.930000     -1.5302610E-36
   2.940000     -2.5463370E-36
   2.950000     -3.4710040E-36
   2.960000     -4.3406026E-36
   2.970000     -5.2362785E-36
   2.980000     -6.1202095E-36
   2.990000     -6.9830793E-36
   3.000000     -7.7868114E-36
   3.010000     -8.5339685E-36
   3.020000     -9.2605487E-36
   3.030000     -9.9465921E-36
   3.040000     -1.0608103E-35
   3.050000     -1.1197780E-35
   3.060000     -1.1681677E-35
   3.070000     -1.2158660E-35
   3.080000     -1.2609283E-35
   3.090000     -1.3058845E-35
   3.100000     -1.3506840E-35
   3.110000     -1.3920472E-35
   3.120000     -1.4316722E-35
   3.130000     -1.4788408E-35
   3.140000     -1.5362530E-35
   3.150000     -1.5944677E-35
   3.160000     -1.6530153E-35
   3.170000     -1.7117225E-35
   3.180000     -1.7702695E-35
   3.190000     -1.8186100E-35
   3.200000     -1.8472469E-35
   3.210000     -1.8539393E-35
   3.220000     -1.8452357E-35
   3.230000     -1.8057605E-35
   3.240000     -1.6917463E-35
   3.250000     -1.5101429E-35
   3.260000     -1.2767675E-35
   3.270000     -9.9183678E-36
   3.280000     -6.6445363E-36
   3.290000     -2.5313342E-36
   3.300000      2.4077644E-36
   3.310000      7.8667506E-36
   3.320000      1.3937321E-35
   3.330000      2.0522431E-35
   3.340000      2.7171259E-35
   3.350000      3.3937182E-35
   3.360000      4.0427578E-35
   3.370000      4.6350118E-35
   3.380000      5.2230796E-35
   3.390000      5.8062545E-35
   3.400000      6.3890747E-35
   3.410000      6.9758559E-35
   3.420000      7.5731419E-35
   3.430000      8.1379703E-35
   3.440000      8.6236539E-35
   3.450000      9.1044942E-35
   3.460000      9.6401052E-35
   3.470000      1.0208392E-34
   3.480000      1.0808999E-34
   3.490000      1.1441644E-34
   3.500000      1.2116122E-34
   3.510000      1.2776563E-34
   3.520000      1.3403796E-34
   3.530000      1.4126269E-34
   3.540000      1.4159564E-34
   3.550000      1.3330235E-34
   3.560000      1.2323828E-34
   3.570000      1.1167985E-34
   3.580000      9.7966836E-35
   3.590000      8.1500398E-35
   3.600000      6.2668669E-35
   3.610000      4.1271213E-35
   3.620000      2.1427049E-35
   3.630000      3.7404486E-36
   3.640000     -1.3295536E-35
   3.650000     -2.7995256E-35
   3.660000     -4.2102973E-35
   3.670000     -5.6907656E-35
   3.680000     -7.2847015E-35
   3.690000     -8.9560128E-35
   3.700000     -1.0712511E-34
   3.710000     -1.2606187E-34
   3.720000     -1.4643546E-34
   3.730000     -1.6328117E-34
   3.740000     -1.7781316E-34
   3.750000     -1.9622587E-34
   3.760000     -2.1971590E-34
   3.770000     -2.4857105E-34
   3.780000     -2.7869366E-34
   3.790000     -3.0844536E-34
   3.800000     -3.3803999E-34
   3.810000     -3.6905417E-34
   3.820000     -4.0330476E-34
   3.830000     -4.4065490E-34
   3.840000     -4.8080919E-34
   3.850000     -5.1890210E-34
   3.860000     -5.5503900E-34
   3.870000     -5.9286526E-34
   3.880000     -6.2865025E-34
   3.890000     -6.6032348E-34
   3.900000     -6.8787684E-34
   3.910000     -7.1045377E-34
   3.920000     -7.2960675E-34
   3.930000     -7.4244623E-34
   3.940000     -7.4681195E-34
   3.950000     -7.4389204E-34
   3.960000     -7.3232706E-34
   3.970000     -7.1140835E-34
   3.980000     -6.8490693E-34
   3.990000     -6.5333948E-34
   4.000000     -6.1265521E-34
   4.010000     -5.6176471E-34
   4.020000     -4.9847196E-34
   4.030000     -4.2250155E-34
   4.040000     -3.3548875E-34
   4.050000     -2.3550288E-34
   4.060000     -1.2612818E-34
   4.070000     -1.0774157E-35
   4.080000      1.1361270E-34
   4.090000      2.4655512E-34
   4.100000      3.8767735E-34
   4.110000      5.3783412E-34
   4.120000      6.9495102E-34
   4.130000      8.5763177E-34
   4.140000      1.0273443E-33
   4.150000      1.2026037E-33
   4.160000      1.3830728E-33
   4.170000      1.5696718E-33
   4.180000      1.7590105E-33
   4.190000      1.9511586E-33
   4.200000      2.1466193E-33
   4.210000      2.3446543E-33
   4.220000      2.5459013E-33
   4.230000      2.7512122E-33
   4.240000      2.9594365E-33
   4.250000      3.1676862E-33
   4.260000      3.3764881E-33
   4.270000      3.5866294E-33
   4.280000      3.7937376E-33
   4.290000      3.9932741E-33
   4.300000      4.1852723E-33
   4.310000      4.3670993E-33
   4.320000      4.5347428E-33
   4.330000      4.6856751E-33
   4.340000      4.8157946E-33
   4.350000      4.9212317E-33
   4.360000      4.9991945E-33
   4.370000      5.0456552E-33
   4.380000      5.0564191E-33
   4.390000      5.0296663E-33
   4.400000      4.9600590E-33
   4.410000      4.8442482E-33
   4.420000      4.6817729E-33
   4.430000      4.4683817E-33
   4.440000      4.2006713E-33
   4.450000      3.8756816E-33
   4.460000      3.4922460E-33
   4.470000      3.0503338E-33
   4.480000      2.5489704E-33
   4.490000      1.9833703E-33
   4.500000      1.3496737E-33
   4.510000      6.4855068E-34
   4.520000     -1.2106923E-34
   4.530000     -9.5988095E-34
   4.540000     -1.8667635E-33
   4.550000     -2.8409077E-33
   4.560000     -3.8816535E-33
   4.570000     -4.9886955E-33
   4.580000     -6.1616883E-33
   4.590000     -7.3986577E-33
   4.600000     -8.6971227E-33
   4.610000     -1.0053979E-32
   4.620000     -1.1466362E-32
   4.630000     -1.2929417E-32
   4.640000     -1.4438916E-32
   4.650000     -1.5994283E-32
   4.660000     -1.7585432E-32
   4.670000     -1.9203944E-32
   4.680000     -2.0846760E-32
   4.690000     -2.2504822E-32
   4.700000     -2.4168912E-32
   4.710000     -2.5827642E-32
   4.720000     -2.7470524E-32
   4.730000     -2.9087816E-32
   4.740000     -3.0666347E-32
   4.750000     -3.2192138E-32
   4.760000     -3.3648667E-32
   4.770000     -3.5019546E-32
   4.780000     -3.6289218E-32
   4.790000     -3.7440177E-32
   4.800000     -3.8454217E-32
   4.810000     -3.9312272E-32
   4.820000     -3.9994317E-32
   4.830000     -4.0480111E-32
   4.840000     -4.0748867E-32
   4.850000     -4.0779648E-32
   4.860000     -4.0551405E-32
   4.870000     -4.0042231E-32
   4.880000     -3.9230446E-32
   4.890000     -3.8094777E-32
   4.900000     -3.6613696E-32
   4.910000     -3.4767420E-32
   4.920000     -3.2535676E-32
   4.930000     -2.9898014E-32
   4.940000     -2.6836098E-32
   4.950000     -2.3332148E-32
   4.960000     -1.9369307E-32
   4.970000     -1.4932117E-32
   4.980000     -1.0006795E-32
   4.990000     -4.5807762E-33
   5.000000      1.3568803E-33
   5.010000      7.8142669E-33
   5.020000      1.4797111E-32
   5.030000      2.2309756E-32
   5.040000      3.0354024E-32
   5.050000      3.8928752E-32
   5.060000      4.8029735E-32
   5.070000      5.7649587E-32
   5.080000      6.7777464E-32
   5.090000      7.8398949E-32
   5.100000      8.9495581E-32
   5.110000      1.0104420E-31
   5.120000      1.1301842E-31
   5.130000      1.2538707E-31
   5.140000      1.3811296E-31
   5.150000      1.5115459E-31
   5.160000      1.6446545E-31
   5.170000      1.7799320E-31
   5.180000      1.9167971E-31
   5.190000      2.0546120E-31
   5.200000      2.1926799E-31
   5.210000      2.3302445E-31
   5.220000      2.4664878E-31
   5.230000      2.6005292E-31
   5.240000      2.7314276E-31
   5.250000      2.8581818E-31
   5.260000      2.9797301E-31
   5.270000      3.0949471E-31
   5.280000      3.2026518E-31
   5.290000      3.3016063E-31
   5.300000      3.3905181E-31
   5.310000      3.4680417E-31
   5.320000      3.5327844E-31
   5.330000      3.5833100E-31
   5.340000      3.6181394E-31
   5.350000      3.6357587E-31
   5.360000      3.6346229E-31
   5.370000      3.6131621E-31
   5.380000      3.5697887E-31
   5.390000      3.5029026E-31
   5.400000      3.4108995E-31
   5.410000      3.2921741E-31
   5.420000      3.1451320E-31
   5.430000      2.9682006E-31
   5.440000      2.7598336E-31
   5.450000      2.5185218E-31
   5.460000      2.2428040E-31
   5.470000      1.9312761E-31
   5.480000      1.5826040E-31
   5.490000      1.1955338E-31
   5.500000      7.6890461E-32
   5.510000      3.0166165E-32
   5.520000     -2.0713129E-32
   5.530000     -7.5827743E-32
   5.540000     -1.3524315E-31
   5.550000     -1.9900868E-31
   5.560000     -2.6715582E-31
   5.570000     -3.3969668E-31
   5.580000     -4.1662242E-31
   5.590000     -4.9790165E-31
   5.600000     -5.8347858E-31
   5.610000     -6.7327163E-31
   5.620000     -7.6717139E-31
   5.630000     -8.6503915E-31
   5.640000     -9.6670511E-31
   5.650000     -1.0719669E-30
   5.660000     -1.1805874E-30
   5.670000     -1.2922941E-30
   5.680000     -1.4067765E-30
   5.690000     -1.5236857E-30
   5.700000     -1.6426322E-30
   5.710000     -1.7631851E-30
   5.720000     -1.8848710E-30
   5.730000     -2.0071728E-30
   5.740000     -2.1295290E-30
   5.750000     -2.2513329E-30
   5.760000     -2.3719326E-30
   5.770000     -2.4906292E-30
   5.780000     -2.6066785E-30
   5.790000     -2.7192897E-30
   5.800000     -2.8276266E-30
   5.810000     -2.9308068E-30
   5.820000     -3.0279034E-30
   5.830000     -3.1179457E-30
   5.840000     -3.1999198E-30
   5.850000     -3.2727707E-30
   5.860000     -3.3354037E-30
   5.870000     -3.3866854E-30
   5.880000     -3.4254473E-30
   5.890000     -3.4504882E-30
   5.900000     -3.4605756E-30
   5.910000     -3.4544514E-30
   5.920000     -3.4308320E-30
   5.930000     -3.3884161E-30
   5.940000     -3.3258854E-30
   5.950000     -3.2419130E-30
   5.960000     -3.1351651E-30
   5.970000     -3.0043093E-30
   5.980000     -2.8480191E-30
   5.990000     -2.6649817E-30
   6.000000     -2.4539037E-30
   6.010000     -2.2135196E-30
   6.020000     -1.9425992E-30
   6.030000     -1.6399570E-30
   6.040000     -1.3044604E-30
   6.050000     -9.3503871E-31
   6.060000     -5.3069348E-31
   6.070000     -9.0508986E-32
   6.080000      3.8633736E-31
   6.090000      9.0056362E-31
   6.100000      1.4527732E-30
   6.110000      2.0434423E-30
   6.120000      2.6729077E-30
   6.130000      3.3413549E-30
   6.140000      4.0488058E-30
   6.150000      4.7951074E-30
   6.160000      5.5799163E-30
   6.170000      6.4026879E-30
   6.180000      7.2626653E-30
   6.190000      8.1588622E-30
   6.200000      9.0900523E-30
   6.210000      1.0054758E-29
   6.220000      1.1051237E-29
   6.230000      1.2077465E-29
   6.240000      1.3131135E-29
   6.250000      1.4209630E-29
   6.260000      1.5310024E-29
   6.270000      1.6429067E-29
   6.280000      1.7563171E-29
   6.290000      1.8708401E-29
   6.300000      1.9860468E-29
   6.310000      2.1014720E-29
   6.320000      2.2166127E-29
   6.330000      2.3309283E-29
   6.340000      2.4438399E-29
   6.350000      2.5547292E-29
   6.360000      2.6629388E-29
   6.370000      2.7677717E-29
   6.380000      2.8684906E-29
   6.390000      2.9643201E-29
   6.400000      3.0544448E-29
   6.410000      3.1380106E-29
   6.420000      3.2141258E-29
   6.430000      3.2818626E-29
   6.440000      3.3402562E-29
   6.450000      3.3883084E-29
   6.460000      3.4249890E-29
   6.470000      3.4492361E-29
   6.480000      3.4599602E-29
   6.490000      3.4560467E-29
   6.500000      3.4363571E-29
   6.510000      3.3997346E-29
   6.520000      3.3450042E-29
   6.530000      3.2709808E-29
   6.540000      3.1764697E-29
   6.550000      3.0602729E-29
   6.560000      2.9211928E-29
   6.570000      2.7580385E-29
   6.580000      2.5696302E-29
   6.590000      2.3548070E-29
   6.600000      2.1124302E-29
   6.610000      1.8413922E-29
   6.620000      1.5406222E-29
   6.630000      1.2090939E-29
   6.640000      8.4583330E-30
   6.650000      4.4992673E-30
   6.660000      2.0530112E-31
   6.670000     -4.4312278E-30
   6.680000     -9.4171203E-30
   6.690000     -1.4758210E-29
   6.700000     -2.0459264E-29
   6.710000     -2.6523883E-29
   6.720000     -3.2954404E-29
   6.730000     -3.9751784E-29
   6.740000     -4.6915491E-29
   6.750000     -5.4443385E-29
   6.760000     -6.2331615E-29
   6.770000     -7.0574505E-29
   6.780000     -7.9164424E-29
   6.790000     -8.8091699E-29
   6.800000     -9.7344444E-29
   6.810000     -1.0690850E-28
   6.820000     -1.1676731E-28
   6.830000     -1.2690175E-28
   6.840000     -1.3729010E-28
   6.850000     -1.4790787E-28
   6.860000     -1.5872774E-28
   6.870000     -1.6971941E-28
   6.880000     -1.8084958E-28
   6.890000     -1.9208177E-28
   6.900000     -2.0337630E-28
   6.910000     -2.1469018E-28
   6.920000     -2.2597702E-28
   6.930000     -2.3718704E-28
   6.940000     -2.4826701E-28
   6.950000     -2.5916007E-28
   6.960000     -2.6980593E-28
   6.970000     -2.8014062E-28
   6.980000     -2.9009666E-28
   6.990000     -2.9960301E-28
   7.000000     -3.0858501E-28
   7.010000     -3.1696462E-28
   7.020000     -3.2466025E-28
   7.030000     -3.3158705E-28
   7.040000     -3.3765683E-28
   7.050000     -3.4277829E-28
   7.060000     -3.4685719E-28