  -2.600000      0.0000000E+00
  -2.590000      0.0000000E+00
  -2.580000      0.0000000E+00
  -2.570000      0.0000000E+00
  -2.560000      0.0000000E+00
  -2.550000      0.0000000E+00
  -2.540000      0.0000000E+00
  -2.530000      0.0000000E+00
  -2.520000      0.0000000E+00
  -2.510000      0.0000000E+00
  -2.500000      0.0000000E+00
  -2.490000      0.0000000E+00
  -2.480000      0.0000000E+00
  -2.470000      0.0000000E+00
  -2.460000      0.0000000E+00
  -2.450000      0.0000000E+00
  -2.440000      0.0000000E+00
  -2.430000      0.0000000E+00
  -2.420000      0.0000000E+00
  -2.410000      0.0000000E+00
  -2.400000      0.0000000E+00
  -2.390000      0.0000000E+00
  -2.380000      0.0000000E+00
  -2.370000      0.0000000E+00
  -2.360000      0.0000000E+00
  -2.350000      0.0000000E+00
  -2.340000      0.0000000E+00
  -2.330000      0.0000000E+00
  -2.320000      0.0000000E+00
  -2.310000      0.0000000E+00
  -2.300000      0.0000000E+00
  -2.290000      0.0000000E+00
  -2.280000      0.0000000E+00
  -2.270000      0.0000000E+00
  -2.260000      0.0000000E+00
  -2.250000      0.0000000E+00
  -2.240000      0.0000000E+00
  -2.230000      0.0000000E+00
  -2.220000      0.0000000E+00
  -2.210000      0.0000000E+00
  -2.200000      0.0000000E+00
  -2.190000      0.0000000E+00
  -2.180000      0.0000000E+00
  -2.170000      0.0000000E+00
  -2.160000      0.0000000E+00
  -2.150000      0.0000000E+00
  -2.140000      0.0000000E+00
  -2.130000      0.0000000E+00
  -2.120000      0.0000000E+00
  -2.110000      0.0000000E+00
  -2.100000      0.0000000E+00
  -2.090000      0.0000000E+00
  -2.080000      0.0000000E+00
  -2.070000      0.0000000E+00
  -2.060000      0.0000000E+00
  -2.050000      0.0000000E+00
  -2.040000      0.0000000E+00
  -2.030000      0.0000000E+00
  -2.020000      0.0000000E+00
  -2.010000      0.0000000E+00
  -2.000000      0.0000000E+00
  -1.990000      0.0000000E+00
  -1.980000      0.0000000E+00
  -1.970000      0.0000000E+00
  -1.960000      0.0000000E+00
  -1.950000      0.0000000E+00
  -1.940000      0.0000000E+00
  -1.930000      0.0000000E+00
  -1.920000      0.0000000E+00
  -1.910000      0.0000000E+00
  -1.900000      0.0000000E+00
  -1.890000      0.0000000E+00
  -1.880000      0.0000000E+00
  -1.870000      0.0000000E+00
  -1.860000      0.0000000E+00
  -1.850000      0.0000000E+00
  -1.840000      0.0000000E+00
  -1.830000      0.0000000E+00
  -1.820000      0.0000000E+00
  -1.810000      0.0000000E+00
  -1.800000      0.0000000E+00
  -1.790000      0.0000000E+00
  -1.780000      0.0000000E+00
  -1.770000      0.0000000E+00
  -1.760000      0.0000000E+00
  -1.750000      0.0000000E+00
  -1.740000      0.0000000E+00
  -1.730000      0.0000000E+00
  -1.720000      0.0000000E+00
  -1.710000      0.0000000E+00
  -1.700000      0.0000000E+00
  -1.690000      0.0000000E+00
  -1.680000      0.0000000E+00
  -1.670000      0.0000000E+00
  -1.660000      0.0000000E+00
  -1.650000      0.0000000E+00
  -1.640000      0.0000000E+00
  -1.630000      0.0000000E+00
  -1.620000      0.0000000E+00
  -1.610000      0.0000000E+00
  -1.600000      0.0000000E+00
  -1.590000      0.0000000E+00
  -1.580000      0.0000000E+00
  -1.570000      0.0000000E+00
  -1.560000      0.0000000E+00
  -1.550000      0.0000000E+00
  -1.540000      0.0000000E+00
  -1.530000      0.0000000E+00
  -1.520000      0.0000000E+00
  -1.510000      0.0000000E+00
  -1.500000      0.0000000E+00
  -1.490000      0.0000000E+00
  -1.480000      0.0000000E+00
  -1.470000      0.0000000E+00
  -1.460000      0.0000000E+00
  -1.450000      0.0000000E+00
  -1.440000      0.0000000E+00
  -1.430000      0.0000000E+00
  -1.420000      0.0000000E+00
  -1.410000      0.0000000E+00
  -1.400000      0.0000000E+00
  -1.390000      0.0000000E+00
  -1.380000      0.0000000E+00
  -1.370000      0.0000000E+00
  -1.360000      0.0000000E+00
  -1.350000      0.0000000E+00
  -1.340000      0.0000000E+00
  -1.330000      0.0000000E+00
  -1.320000      0.0000000E+00
  -1.310000      0.0000000E+00
  -1.300000      0.0000000E+00
  -1.290000      0.0000000E+00
  -1.280000      0.0000000E+00
  -1.270000      0.0000000E+00
  -1.260000      0.0000000E+00
  -1.250000      0.0000000E+00
  -1.240000      0.0000000E+00
  -1.230000      0.0000000E+00
  -1.220000      0.0000000E+00
  -1.210000      0.0000000E+00
  -1.200000      0.0000000E+00
  -1.190000      0.0000000E+00
  -1.180000      0.0000000E+00
  -1.170000      0.0000000E+00
  -1.160000      0.0000000E+00
  -1.150000      0.0000000E+00
  -1.140000      0.0000000E+00
  -1.130000      0.0000000E+00
  -1.120000      0.0000000E+00
  -1.110000      0.0000000E+00
  -1.100000      0.0000000E+00
  -1.090000      0.0000000E+00
  -1.080000      0.0000000E+00
  -1.070000      0.0000000E+00
  -1.060000      0.0000000E+00
  -1.050000      0.0000000E+00
  -1.040000      0.0000000E+00
  -1.030000      0.0000000E+00
  -1.020000      0.0000000E+00
  -1.010000      0.0000000E+00
  -1.000000      0.0000000E+00
 -0.9900000      0.0000000E+00
 -0.9800000      0.0000000E+00
 -0.9700000      0.0000000E+00
 -0.9600000      0.0000000E+00
 -0.9500000      0.0000000E+00
 -0.9400000      0.0000000E+00
 -0.9300000      0.0000000E+00
 -0.9200000      0.0000000E+00
 -0.9100000      0.0000000E+00
 -0.9000000      0.0000000E+00
 -0.8900000      0.0000000E+00
 -0.8800000      0.0000000E+00
 -0.8700000      0.0000000E+00
 -0.8600000      0.0000000E+00
 -0.8500000      0.0000000E+00
 -0.8400000      0.0000000E+00
 -0.8300000      0.0000000E+00
 -0.8200000      0.0000000E+00
 -0.8100000      0.0000000E+00
 -0.8000000      0.0000000E+00
 -0.7900000      0.0000000E+00
 -0.7800000      0.0000000E+00
 -0.7700000      0.0000000E+00
 -0.7600000      0.0000000E+00
 -0.7500000      0.0000000E+00
 -0.7400000      0.0000000E+00
 -0.7300000      0.0000000E+00
 -0.7200000      0.0000000E+00
 -0.7100000      0.0000000E+00
 -0.7000000      0.0000000E+00
 -0.6900000      0.0000000E+00
 -0.6800000      0.0000000E+00
 -0.6700000      0.0000000E+00
 -0.6600000      0.0000000E+00
 -0.6500000      0.0000000E+00
 -0.6400000      0.0000000E+00
 -0.6300000      0.0000000E+00
 -0.6200000      0.0000000E+00
 -0.6100000      0.0000000E+00
 -0.6000000      0.0000000E+00
 -0.5900000      0.0000000E+00
 -0.5800000      0.0000000E+00
 -0.5700000      0.0000000E+00
 -0.5600000      0.0000000E+00
 -0.5500000      0.0000000E+00
 -0.5400000      0.0000000E+00
 -0.5300000      0.0000000E+00
 -0.5200000      0.0000000E+00
 -0.5100000      0.0000000E+00
 -0.5000000      0.0000000E+00
 -0.4900000      0.0000000E+00
 -0.4800000      0.0000000E+00
 -0.4700000      0.0000000E+00
 -0.4600000      0.0000000E+00
 -0.4500000      0.0000000E+00
 -0.4400000      0.0000000E+00
 -0.4300000      0.0000000E+00
 -0.4200000      0.0000000E+00
 -0.4100000      0.0000000E+00
 -0.4000000      0.0000000E+00
 -0.3900000      0.0000000E+00
 -0.3800000      0.0000000E+00
 -0.3700000      0.0000000E+00
 -0.3600000      0.0000000E+00
 -0.3500000      0.0000000E+00
 -0.3400000      0.0000000E+00
 -0.3300000      0.0000000E+00
 -0.3200000      0.0000000E+00
 -0.3100000      0.0000000E+00
 -0.3000000      0.0000000E+00
 -0.2900000      0.0000000E+00
 -0.2800000      0.0000000E+00
 -0.2700000      0.0000000E+00
 -0.2600000      0.0000000E+00
 -0.2500000      0.0000000E+00
 -0.2400000      0.0000000E+00
 -0.2300000      0.0000000E+00
 -0.2200000      0.0000000E+00
 -0.2100000      0.0000000E+00
 -0.2000000      0.0000000E+00
 -0.1900000      0.0000000E+00
 -0.1800000      0.0000000E+00
 -0.1700000      0.0000000E+00
 -0.1600000      0.0000000E+00
 -0.1500000      0.0000000E+00
 -0.1400000      0.0000000E+00
 -0.1300000      0.0000000E+00
 -0.1200000      0.0000000E+00
 -0.1100000      0.0000000E+00
 -0.1000000      0.0000000E+00
 -9.0000004E-02  0.0000000E+00
 -7.9999998E-02  0.0000000E+00
 -7.0000000E-02  0.0000000E+00
 -5.9999999E-02  0.0000000E+00
 -5.0000001E-02  0.0000000E+00
 -3.9999999E-02  0.0000000E+00
 -2.9999999E-02  0.0000000E+00
 -2.0000000E-02  0.0000000E+00
 -9.9999998E-03  0.0000000E+00
 -3.4694470E-17  0.0000000E+00
  9.9999998E-03  0.0000000E+00
  2.0000000E-02  0.0000000E+00
  2.9999999E-02  0.0000000E+00
  3.9999999E-02  0.0000000E+00
  5.0000001E-02  0.0000000E+00
  5.9999999E-02  0.0000000E+00
  7.0000000E-02  0.0000000E+00
  7.9999998E-02  0.0000000E+00
  9.0000004E-02  0.0000000E+00
  0.1000000      0.0000000E+00
  0.1100000      0.0000000E+00
  0.1200000      0.0000000E+00
  0.1300000      0.0000000E+00
  0.1400000      0.0000000E+00
  0.1500000      0.0000000E+00
  0.1600000      0.0000000E+00
  0.1700000      0.0000000E+00
  0.1800000      0.0000000E+00
  0.1900000      0.0000000E+00
  0.2000000      0.0000000E+00
  0.2100000      0.0000000E+00
  0.2200000      0.0000000E+00
  0.2300000      0.0000000E+00
  0.2400000      0.0000000E+00
  0.2500000      0.0000000E+00
  0.2600000      0.0000000E+00
  0.2700000      0.0000000E+00
  0.2800000      0.0000000E+00
  0.2900000      0.0000000E+00
  0.3000000      0.0000000E+00
  0.3100000      0.0000000E+00
  0.3200000      0.0000000E+00
  0.3300000      0.0000000E+00
  0.3400000      0.0000000E+00
  0.3500000      0.0000000E+00
  0.3600000      0.0000000E+00
  0.3700000      0.0000000E+00
  0.3800000      0.0000000E+00
  0.3900000      0.0000000E+00
  0.4000000      0.0000000E+00
  0.4100000      0.0000000E+00
  0.4200000      0.0000000E+00
  0.4300000      0.0000000E+00
  0.4400000      0.0000000E+00
  0.4500000      0.0000000E+00
  0.4600000      0.0000000E+00
  0.4700000      0.0000000E+00
  0.4800000      0.0000000E+00
  0.4900000      0.0000000E+00
  0.5000000      0.0000000E+00
  0.5100000      0.0000000E+00
  0.5200000      0.0000000E+00
  0.5300000      0.0000000E+00
  0.5400000      0.0000000E+00
  0.5500000      0.0000000E+00
  0.5600000      0.0000000E+00
  0.5700000      0.0000000E+00
  0.5800000      0.0000000E+00
  0.5900000      0.0000000E+00
  0.6000000      0.0000000E+00
  0.6100000      0.0000000E+00
  0.6200000      0.0000000E+00
  0.6300000      0.0000000E+00
  0.6400000      0.0000000E+00
  0.6500000      0.0000000E+00
  0.6600000      0.0000000E+00
  0.6700000      0.0000000E+00
  0.6800000      0.0000000E+00
  0.6900000      0.0000000E+00
  0.7000000      0.0000000E+00
  0.7100000      0.0000000E+00
  0.7200000      0.0000000E+00
  0.7300000      0.0000000E+00
  0.7400000      0.0000000E+00
  0.7500000      0.0000000E+00
  0.7600000      0.0000000E+00
  0.7700000      0.0000000E+00
  0.7800000      0.0000000E+00
  0.7900000      0.0000000E+00
  0.8000000      0.0000000E+00
  0.8100000      0.0000000E+00
  0.8200000      0.0000000E+00
  0.8300000      0.0000000E+00
  0.8400000      0.0000000E+00
  0.8500000      0.0000000E+00
  0.8600000      0.0000000E+00
  0.8700000      0.0000000E+00
  0.8800000      0.0000000E+00
  0.8900000      0.0000000E+00
  0.9000000      0.0000000E+00
  0.9100000      0.0000000E+00
  0.9200000      0.0000000E+00
  0.9300000      0.0000000E+00
  0.9400000      0.0000000E+00
  0.9500000      0.0000000E+00
  0.9600000      0.0000000E+00
  0.9700000      0.0000000E+00
  0.9800000      0.0000000E+00
  0.9900000      0.0000000E+00
   1.000000      0.0000000E+00
   1.010000      0.0000000E+00
   1.020000      0.0000000E+00
   1.030000      0.0000000E+00
   1.040000      0.0000000E+00
   1.050000      0.0000000E+00
   1.060000      0.0000000E+00
   1.070000      0.0000000E+00
   1.080000      0.0000000E+00
   1.090000      0.0000000E+00
   1.100000      0.0000000E+00
   1.110000      0.0000000E+00
   1.120000      0.0000000E+00
   1.130000      0.0000000E+00
   1.140000      0.0000000E+00
   1.150000      0.0000000E+00
   1.160000      0.0000000E+00
   1.170000      0.0000000E+00
   1.180000      0.0000000E+00
   1.190000      0.0000000E+00
   1.200000      0.0000000E+00
   1.210000      0.0000000E+00
   1.220000      0.0000000E+00
   1.230000      0.0000000E+00
   1.240000      0.0000000E+00
   1.250000      0.0000000E+00
   1.260000      0.0000000E+00
   1.270000      0.0000000E+00
   1.280000      0.0000000E+00
   1.290000      0.0000000E+00
   1.300000      0.0000000E+00
   1.310000      0.0000000E+00
   1.320000      0.0000000E+00
   1.330000      0.0000000E+00
   1.340000      0.0000000E+00
   1.350000      0.0000000E+00
   1.360000      0.0000000E+00
   1.370000      0.0000000E+00
   1.380000      0.0000000E+00
   1.390000      0.0000000E+00
   1.400000      0.0000000E+00
   1.410000      0.0000000E+00
   1.420000      0.0000000E+00
   1.430000      0.0000000E+00
   1.440000      0.0000000E+00
   1.450000      0.0000000E+00
   1.460000      0.0000000E+00
   1.470000      0.0000000E+00
   1.480000      0.0000000E+00
   1.490000      0.0000000E+00
   1.500000      0.0000000E+00
   1.510000      0.0000000E+00
   1.520000      0.0000000E+00
   1.530000      0.0000000E+00
   1.540000      0.0000000E+00
   1.550000      0.0000000E+00
   1.560000      0.0000000E+00
   1.570000      0.0000000E+00
   1.580000      0.0000000E+00
   1.590000      0.0000000E+00
   1.600000      0.0000000E+00
   1.610000      0.0000000E+00
   1.620000      0.0000000E+00
   1.630000      0.0000000E+00
   1.640000      0.0000000E+00
   1.650000      0.0000000E+00
   1.660000      0.0000000E+00
   1.670000      0.0000000E+00
   1.680000      0.0000000E+00
   1.690000      0.0000000E+00
   1.700000      0.0000000E+00
   1.710000      0.0000000E+00
   1.720000      0.0000000E+00
   1.730000      0.0000000E+00
   1.740000      0.0000000E+00
   1.750000      0.0000000E+00
   1.760000      0.0000000E+00
   1.770000      0.0000000E+00
   1.780000      0.0000000E+00
   1.790000      0.0000000E+00
   1.800000      0.0000000E+00
   1.810000      0.0000000E+00
   1.820000      0.0000000E+00
   1.830000      0.0000000E+00
   1.840000      0.0000000E+00
   1.850000      0.0000000E+00
   1.860000      0.0000000E+00
   1.870000      0.0000000E+00
   1.880000      0.0000000E+00
   1.890000      0.0000000E+00
   1.900000      0.0000000E+00
   1.910000      0.0000000E+00
   1.920000      0.0000000E+00
   1.930000      0.0000000E+00
   1.940000      0.0000000E+00
   1.950000      0.0000000E+00
   1.960000      0.0000000E+00
   1.970000      0.0000000E+00
   1.980000      0.0000000E+00
   1.990000      0.0000000E+00
   2.000000      0.0000000E+00
   2.010000      0.0000000E+00
   2.020000      0.0000000E+00
   2.030000      0.0000000E+00
   2.040000      0.0000000E+00
   2.050000      0.0000000E+00
   2.060000      0.0000000E+00
   2.070000      0.0000000E+00
   2.080000      0.0000000E+00
   2.090000      0.0000000E+00
   2.100000      0.0000000E+00
   2.110000      0.0000000E+00
   2.120000      0.0000000E+00
   2.130000      0.0000000E+00
   2.140000      0.0000000E+00
   2.150000      0.0000000E+00
   2.160000      0.0000000E+00
   2.170000      0.0000000E+00
   2.180000      0.0000000E+00
   2.190000      0.0000000E+00
   2.200000      0.0000000E+00
   2.210000      0.0000000E+00
   2.220000      0.0000000E+00
   2.230000      0.0000000E+00
   2.240000     -1.2786714E-38
   2.250000     -1.3699049E-38
   2.260000     -1.4157093E-38
   2.270000     -1.4464207E-38
   2.280000     -1.4645066E-38
   2.290000     -1.4722448E-38
   2.300000     -1.4711309E-38
   2.310000     -1.4623553E-38
   2.320000     -1.4468981E-38
   2.330000     -1.4244965E-38
   2.340000     -1.3943810E-38
   2.350000     -1.3571925E-38
   2.360000     -1.3148685E-38
   2.370000     -1.2690794E-38
   2.380000     -1.2225713E-38
   2.390000     -1.1788240E-38
   2.400000     -1.1778991E-38
   2.410000     -1.2234842E-38
   2.420000      0.0000000E+00
   2.430000      0.0000000E+00
   2.440000      0.0000000E+00
   2.450000      0.0000000E+00
   2.460000      0.0000000E+00
   2.470000      0.0000000E+00
   2.480000      1.7404556E-38
   2.490000      2.5200144E-38
   2.500000      3.3865830E-38
   2.510000      4.3406562E-38
   2.520000      5.3771650E-38
   2.530000      6.4904445E-38
   2.540000      7.5149630E-38
   2.550000      8.5076468E-38
   2.560000      9.5610628E-38
   2.570000      1.0628646E-37
   2.580000      7.7901573E-38
   2.590000      0.0000000E+00
   2.600000     -6.6453233E-38
   2.610000     -1.3232653E-37
   2.620000     -2.0115092E-37
   2.630000     -2.7216521E-37
   2.640000     -3.4506311E-37
   2.650000     -4.1884434E-37
   2.660000     -4.9374588E-37
   2.670000     -5.9384697E-37
   2.680000     -6.9108211E-37
   2.690000     -4.8774975E-37
   2.700000      1.5371504E-38
   2.710000      5.8812133E-37
   2.720000      1.1672951E-36
   2.730000      1.4313455E-36
   2.740000      1.4163842E-36
   2.750000      1.3960053E-36
   2.760000      1.4111105E-36
   2.770000      1.4648755E-36
   2.780000      1.4783454E-36
   2.790000      1.4851757E-36
   2.800000      1.2423313E-36
   2.810000      6.9675080E-37
   2.820000      6.8896403E-38
   2.830000     -2.9546028E-37
   2.840000     -2.9465403E-37
   2.850000     -2.2091582E-37
   2.860000     -7.0104686E-38
   2.870000      1.9752714E-37
   2.880000      6.8983013E-37
   2.890000      1.6549086E-36
   2.900000      2.9812024E-36
   2.910000      4.1275080E-36
   2.920000      5.0793226E-36
   2.930000      6.0695694E-36
   2.940000      6.3339013E-36
   2.950000      5.5288585E-36
   2.960000      4.1070803E-36
   2.970000      2.1996300E-36
   2.980000      1.2410251E-37
   2.990000     -1.9058660E-36
   3.000000     -3.8829386E-36
   3.010000     -5.6941645E-36
   3.020000     -7.1270278E-36
   3.030000     -8.0093037E-36
   3.040000     -8.3219928E-36
   3.050000     -8.3794158E-36
   3.060000     -8.7787918E-36
   3.070000     -9.5550881E-36
   3.080000     -1.0484750E-35
   3.090000     -1.1698874E-35
   3.100000     -1.3175765E-35
   3.110000     -1.4890318E-35
   3.120000     -1.6814243E-35
   3.130000     -1.9261241E-35
   3.140000     -2.1658594E-35
   3.150000     -2.3412633E-35
   3.160000     -2.5920178E-35
   3.170000     -2.9002407E-35
   3.180000     -3.1906269E-35
   3.190000     -3.3118291E-35
   3.200000     -3.2576920E-35
   3.210000     -3.1839935E-35
   3.220000     -3.0796110E-35
   3.230000     -3.0426842E-35
   3.240000     -3.1542933E-35
   3.250000     -3.3131340E-35
   3.260000     -2.7990377E-35
   3.270000     -1.6128500E-35
   3.280000     -2.2662561E-36
   3.290000      1.2546588E-35
   3.300000      2.1779370E-35
   3.310000      2.6346046E-35
   3.320000      3.0576264E-35
   3.330000      3.4802132E-35
   3.340000      3.9778462E-35
   3.350000      4.4355216E-35
   3.360000      4.8490990E-35
   3.370000      4.7186384E-35
   3.380000      4.1092286E-35
   3.390000      3.4465216E-35
   3.400000      2.8557307E-35
   3.410000      3.1435646E-35
   3.420000      4.1345130E-35
   3.430000      5.1181202E-35
   3.440000      6.2682261E-35
   3.450000      7.7817715E-35
   3.460000      9.4966955E-35
   3.470000      1.1505401E-34
   3.480000      1.4039293E-34
   3.490000      1.6913164E-34
   3.500000      2.0182400E-34
   3.510000      2.2900896E-34
   3.520000      2.4455246E-34
   3.530000      2.5467074E-34
   3.540000      2.5222447E-34
   3.550000      2.3237645E-34
   3.560000      2.0391142E-34
   3.570000      1.7341558E-34
   3.580000      1.3816417E-34
   3.590000      1.0042146E-34
   3.600000      6.7207862E-35
   3.610000      4.1473794E-35
   3.620000      2.7091882E-35
   3.630000      2.0424315E-35
   3.640000      1.4312314E-35
   3.650000      7.5122132E-36
   3.660000     -3.4841233E-37
   3.670000     -1.0929438E-35
   3.680000     -2.4415279E-35
   3.690000     -3.8119652E-35
   3.700000     -6.0623332E-35
   3.710000     -9.7961544E-35
   3.720000     -1.4684057E-34
   3.730000     -2.0844915E-34
   3.740000     -2.8138061E-34
   3.750000     -3.5739508E-34
   3.760000     -4.2248869E-34
   3.770000     -4.7585279E-34
   3.780000     -5.2347179E-34
   3.790000     -5.7205217E-34
   3.800000     -6.2190245E-34
   3.810000     -6.5828166E-34
   3.820000     -6.8138586E-34
   3.830000     -6.9999403E-34
   3.840000     -7.1548163E-34
   3.850000     -7.2875663E-34
   3.860000     -7.4306892E-34
   3.870000     -7.6315678E-34
   3.880000     -7.9159424E-34
   3.890000     -8.2659440E-34
   3.900000     -8.6717945E-34
   3.910000     -9.1288900E-34
   3.920000     -9.5878894E-34
   3.930000     -9.9966262E-34
   3.940000     -1.0311106E-33
   3.950000     -1.0494061E-33
   3.960000     -1.0525615E-33
   3.970000     -1.0385269E-33
   3.980000     -1.0051985E-33
   3.990000     -9.5570749E-34
   4.000000     -8.9224273E-34
   4.010000     -8.1390990E-34
   4.020000     -7.2415292E-34
   4.030000     -6.2241696E-34
   4.040000     -5.1132089E-34
   4.050000     -3.9550890E-34
   4.060000     -2.7298427E-34
   4.070000     -1.4786081E-34
   4.080000     -2.4519549E-35
   4.090000      1.0230319E-34
   4.100000      2.3837662E-34
   4.110000      3.8527695E-34
   4.120000      5.4276711E-34
   4.130000      7.1570185E-34
   4.140000      9.1114092E-34
   4.150000      1.1322182E-33
   4.160000      1.3772177E-33
   4.170000      1.6446165E-33
   4.180000      1.9315433E-33
   4.190000      2.2283863E-33
   4.200000      2.5280823E-33
   4.210000      2.8258805E-33
   4.220000      3.1137336E-33
   4.230000      3.3910437E-33
   4.240000      3.6622960E-33
   4.250000      3.9349427E-33
   4.260000      4.2089049E-33
   4.270000      4.4812100E-33
   4.280000      4.7576995E-33
   4.290000      5.0390791E-33
   4.300000      5.3272820E-33
   4.310000      5.6218131E-33
   4.320000      5.9163810E-33
   4.330000      6.2058366E-33
   4.340000      6.4836213E-33
   4.350000      6.7422727E-33
   4.360000      6.9740500E-33
   4.370000      7.1696001E-33
   4.380000      7.3197570E-33
   4.390000      7.4206211E-33
   4.400000      7.4720401E-33
   4.410000      7.4727520E-33
   4.420000      7.4213829E-33
   4.430000      7.3163643E-33
   4.440000      7.1584153E-33
   4.450000      6.9470115E-33
   4.460000      6.6803307E-33
   4.470000      6.3570228E-33
   4.480000      5.9741925E-33
   4.490000      5.5270069E-33
   4.500000      5.0100065E-33
   4.510000      4.4179354E-33
   4.520000      3.7439976E-33
   4.530000      2.9855883E-33
   4.540000      2.1365357E-33
   4.550000      1.1863970E-33
   4.560000      1.3379425E-34
   4.570000     -1.0216028E-33
   4.580000     -2.2743501E-33
   4.590000     -3.6119984E-33
   4.600000     -5.0354178E-33
   4.610000     -6.5482367E-33
   4.620000     -8.1474740E-33
   4.630000     -9.8304962E-33
   4.640000     -1.1596231E-32
   4.650000     -1.3437051E-32
   4.660000     -1.5347651E-32
   4.670000     -1.7331446E-32
   4.680000     -1.9381968E-32
   4.690000     -2.1487467E-32
   4.700000     -2.3650287E-32
   4.710000     -2.5868278E-32
   4.720000     -2.8127399E-32
   4.730000     -3.0420413E-32
   4.740000     -3.2731052E-32
   4.750000     -3.5040529E-32
   4.760000     -3.7335649E-32
   4.770000     -3.9598937E-32
   4.780000     -4.1811214E-32
   4.790000     -4.3952845E-32
   4.800000     -4.6003785E-32
   4.810000     -4.7943292E-32
   4.820000     -4.9751194E-32
   4.830000     -5.1407718E-32
   4.840000     -5.2891962E-32
   4.850000     -5.4183237E-32
   4.860000     -5.5260172E-32
   4.870000     -5.6100086E-32
   4.880000     -5.6680098E-32
   4.890000     -5.6975635E-32
   4.900000     -5.6961324E-32
   4.910000     -5.6610744E-32
   4.920000     -5.5896567E-32
   4.930000     -5.4790426E-32
   4.940000     -5.3262701E-32
   4.950000     -5.1285032E-32
   4.960000     -4.8830626E-32
   4.970000     -4.5873220E-32
   4.980000     -4.2386498E-32
   4.990000     -3.8346489E-32
   5.000000     -3.3730490E-32
   5.010000     -2.8519621E-32
   5.020000     -2.2697059E-32
   5.030000     -1.6243306E-32
   5.040000     -9.1473429E-33
   5.050000     -1.3994446E-33
   5.060000      7.0127120E-33
   5.070000      1.6095927E-32
   5.080000      2.5856388E-32
   5.090000      3.6297884E-32
   5.100000      4.7419489E-32
   5.110000      5.9216257E-32
   5.120000      7.1679477E-32
   5.130000      8.4795243E-32
   5.140000      9.8544383E-32
   5.150000      1.1290185E-31
   5.160000      1.2783664E-31
   5.170000      1.4331155E-31
   5.180000      1.5928259E-31
   5.190000      1.7569959E-31
   5.200000      1.9250616E-31
   5.210000      2.0963926E-31
   5.220000      2.2702967E-31
   5.230000      2.4460225E-31
   5.240000      2.6227550E-31
   5.250000      2.7996166E-31
   5.260000      2.9756617E-31
   5.270000      3.1498817E-31
   5.280000      3.3211966E-31
   5.290000      3.4884520E-31
   5.300000      3.6504199E-31
   5.310000      3.8057986E-31
   5.320000      3.9532016E-31
   5.330000      4.0911675E-31
   5.340000      4.2181665E-31
   5.350000      4.3325962E-31
   5.360000      4.4327864E-31
   5.370000      4.5170073E-31
   5.380000      4.5834716E-31
   5.390000      4.6303451E-31
   5.400000      4.6557541E-31
   5.410000      4.6577859E-31
   5.420000      4.6345036E-31
   5.430000      4.5839484E-31
   5.440000      4.5041502E-31
   5.450000      4.3931327E-31
   5.460000      4.2489212E-31
   5.470000      4.0695506E-31
   5.480000      3.8530779E-31
   5.490000      3.5975913E-31
   5.500000      3.3012184E-31
   5.510000      2.9621414E-31
   5.520000      2.5786161E-31
   5.530000      2.1489831E-31
   5.540000      1.6716824E-31
   5.550000      1.1452672E-31
   5.560000      5.6842599E-32
   5.570000     -5.9995931E-33
   5.580000     -7.4098703E-32
   5.590000     -1.4753470E-31
   5.600000     -2.2636727E-31
   5.610000     -3.1063437E-31
   5.620000     -4.0035001E-31
   5.630000     -4.9550280E-31
   5.640000     -5.9605425E-31
   5.650000     -7.0193653E-31
   5.660000     -8.1305117E-31
   5.670000     -9.2926675E-31
   5.680000     -1.0504169E-30
   5.690000     -1.1762985E-30
   5.700000     -1.3066692E-30
   5.710000     -1.4412456E-30
   5.720000     -1.5797010E-30
   5.730000     -1.7216638E-30
   5.740000     -1.8667147E-30
   5.750000     -2.0143858E-30
   5.760000     -2.1641583E-30
   5.770000     -2.3154613E-30
   5.780000     -2.4676713E-30
   5.790000     -2.6201098E-30
   5.800000     -2.7720431E-30
   5.810000     -2.9226814E-30
   5.820000     -3.0711785E-30
   5.830000     -3.2166314E-30
   5.840000     -3.3580800E-30
   5.850000     -3.4945073E-30
   5.860000     -3.6248398E-30
   5.870000     -3.7479481E-30
   5.880000     -3.8626474E-30
   5.890000     -3.9677001E-30
   5.900000     -4.0618137E-30
   5.910000     -4.1436477E-30
   5.920000     -4.2118117E-30
   5.930000     -4.2648699E-30
   5.940000     -4.3013430E-30
   5.950000     -4.3197112E-30
   5.960000     -4.3184191E-30
   5.970000     -4.2958804E-30
   5.980000     -4.2504811E-30
   5.990000     -4.1805849E-30
   6.000000     -4.0845393E-30
   6.010000     -3.9606806E-30
   6.020000     -3.8073434E-30
   6.030000     -3.6228646E-30
   6.040000     -3.4055903E-30
   6.050000     -3.1538876E-30
   6.060000     -2.8661518E-30
   6.070000     -2.5408154E-30
   6.080000     -2.1763584E-30
   6.090000     -1.7713195E-30
   6.100000     -1.3243082E-30
   6.110000     -8.3401446E-31
   6.120000     -2.9922387E-31
   6.130000      2.8117131E-31
   6.140000      9.0815835E-31
   6.150000      1.5825885E-30
   6.160000      2.3051625E-30
   6.170000      3.0764182E-30
   6.180000      3.8967141E-30
   6.190000      4.7662136E-30
   6.200000      5.6848690E-30
   6.210000      6.6524065E-30
   6.220000      7.6683082E-30
   6.230000      8.7317970E-30
   6.240000      9.8418195E-30
   6.250000      1.0997033E-29
   6.260000      1.2195782E-29
   6.270000      1.3436086E-29
   6.280000      1.4715627E-29
   6.290000      1.6031724E-29
   6.300000      1.7381325E-29
   6.310000      1.8760989E-29
   6.320000      2.0166868E-29
   6.330000      2.1594699E-29
   6.340000      2.3039784E-29
   6.350000      2.4496985E-29
   6.360000      2.5960699E-29
   6.370000      2.7424854E-29
   6.380000      2.8882907E-29
   6.390000      3.0327820E-29
   6.400000      3.1752058E-29
   6.410000      3.3147587E-29
   6.420000      3.4505867E-29
   6.430000      3.5817852E-29
   6.440000      3.7073983E-29
   6.450000      3.8264187E-29
   6.460000      3.9377898E-29
   6.470000      4.0404051E-29
   6.480000      4.1331104E-29
   6.490000      4.2147036E-29
   6.500000      4.2839372E-29
   6.510000      4.3395207E-29
   6.520000      4.3801214E-29
   6.530000      4.4043689E-29
   6.540000      4.4108562E-29
   6.550000      4.3981457E-29
   6.560000      4.3647702E-29
   6.570000      4.3092373E-29
   6.580000      4.2300364E-29
   6.590000      4.1256417E-29
   6.600000      3.9945177E-29
   6.610000      3.8351254E-29
   6.620000      3.6459277E-29
   6.630000      3.4253973E-29
   6.640000      3.1720244E-29
   6.650000      2.8843232E-29
   6.660000      2.5608389E-29
   6.670000      2.2001578E-29
   6.680000      1.8009165E-29
   6.690000      1.3618109E-29
   6.700000      8.8160624E-30
   6.710000      3.5914948E-30
   6.720000     -2.0662279E-30
   6.730000     -8.1667179E-30
   6.740000     -1.4718423E-29
   6.750000     -2.1728530E-29
   6.760000     -2.9202825E-29
   6.770000     -3.7145579E-29
   6.780000     -4.5559390E-29
   6.790000     -5.4445046E-29
   6.800000     -6.3801413E-29
   6.810000     -7.3625244E-29
   6.820000     -8.3911076E-29
   6.830000     -9.4651049E-29
   6.840000     -1.0583477E-28
   6.850000     -1.1744918E-28
   6.860000     -1.2947836E-28
   6.870000     -1.4190342E-28
   6.880000     -1.5470241E-28
   6.890000     -1.6785002E-28
   6.900000     -1.8131755E-28
   6.910000     -1.9507281E-28
   6.920000     -2.0907989E-28
   6.930000     -2.2329908E-28
   6.940000     -2.3768669E-28
   6.950000     -2.5219504E-28
   6.960000     -2.6677223E-28
   6.970000     -2.8136221E-28
   6.980000     -2.9590447E-28
   6.990000     -3.1033422E-28
   7.000000     -3.2458210E-28
   7.010000     -3.3857430E-28
   7.020000     -3.5223241E-28
   7.030000     -3.6547349E-28
   7.040000     -3.7821001E-28
   7.050000     -3.9034982E-28
   7.060000     -4.0179629E-28