  -2.600000      0.0000000E+00
  -2.590000      0.0000000E+00
  -2.580000      0.0000000E+00
  -2.570000      0.0000000E+00
  -2.560000      0.0000000E+00
  -2.550000      0.0000000E+00
  -2.540000      0.0000000E+00
  -2.530000      0.0000000E+00
  -2.520000      0.0000000E+00
  -2.510000      0.0000000E+00
  -2.500000      0.0000000E+00
  -2.490000      0.0000000E+00
  -2.480000      0.0000000E+00
  -2.470000      0.0000000E+00
  -2.460000      0.0000000E+00
  -2.450000      0.0000000E+00
  -2.440000      0.0000000E+00
  -2.430000      0.0000000E+00
  -2.420000      0.0000000E+00
  -2.410000      0.0000000E+00
  -2.400000      0.0000000E+00
  -2.390000      0.0000000E+00
  -2.380000      0.0000000E+00
  -2.370000      0.0000000E+00
  -2.360000      0.0000000E+00
  -2.350000      0.0000000E+00
  -2.340000      0.0000000E+00
  -2.330000      0.0000000E+00
  -2.320000      0.0000000E+00
  -2.310000      0.0000000E+00
  -2.300000      0.0000000E+00
  -2.290000      0.0000000E+00
  -2.280000      0.0000000E+00
  -2.270000      0.0000000E+00
  -2.260000      0.0000000E+00
  -2.250000      0.0000000E+00
  -2.240000      0.0000000E+00
  -2.230000      0.0000000E+00
  -2.220000      0.0000000E+00
  -2.210000      0.0000000E+00
  -2.200000      0.0000000E+00
  -2.190000      0.0000000E+00
  -2.180000      0.0000000E+00
  -2.170000      0.0000000E+00
  -2.160000      0.0000000E+00
  -2.150000      0.0000000E+00
  -2.140000      0.0000000E+00
  -2.130000      0.0000000E+00
  -2.120000      0.0000000E+00
  -2.110000      0.0000000E+00
  -2.100000      0.0000000E+00
  -2.090000      0.0000000E+00
  -2.080000      0.0000000E+00
  -2.070000      0.0000000E+00
  -2.060000      0.0000000E+00
  -2.050000      0.0000000E+00
  -2.040000      0.0000000E+00
  -2.030000      0.0000000E+00
  -2.020000      0.0000000E+00
  -2.010000      0.0000000E+00
  -2.000000      0.0000000E+00
  -1.990000      0.0000000E+00
  -1.980000      0.0000000E+00
  -1.970000      0.0000000E+00
  -1.960000      0.0000000E+00
  -1.950000      0.0000000E+00
  -1.940000      0.0000000E+00
  -1.930000      0.0000000E+00
  -1.920000      0.0000000E+00
  -1.910000      0.0000000E+00
  -1.900000      0.0000000E+00
  -1.890000      0.0000000E+00
  -1.880000      0.0000000E+00
  -1.870000      0.0000000E+00
  -1.860000      0.0000000E+00
  -1.850000      0.0000000E+00
  -1.840000      0.0000000E+00
  -1.830000      0.0000000E+00
  -1.820000      0.0000000E+00
  -1.810000      0.0000000E+00
  -1.800000      0.0000000E+00
  -1.790000      0.0000000E+00
  -1.780000      0.0000000E+00
  -1.770000      0.0000000E+00
  -1.760000      0.0000000E+00
  -1.750000      0.0000000E+00
  -1.740000      0.0000000E+00
  -1.730000      0.0000000E+00
  -1.720000      0.0000000E+00
  -1.710000      0.0000000E+00
  -1.700000      0.0000000E+00
  -1.690000      0.0000000E+00
  -1.680000      0.0000000E+00
  -1.670000      0.0000000E+00
  -1.660000      0.0000000E+00
  -1.650000      0.0000000E+00
  -1.640000      0.0000000E+00
  -1.630000      0.0000000E+00
  -1.620000      0.0000000E+00
  -1.610000      0.0000000E+00
  -1.600000      0.0000000E+00
  -1.590000      0.0000000E+00
  -1.580000      0.0000000E+00
  -1.570000      0.0000000E+00
  -1.560000      0.0000000E+00
  -1.550000      0.0000000E+00
  -1.540000      0.0000000E+00
  -1.530000      0.0000000E+00
  -1.520000      0.0000000E+00
  -1.510000      0.0000000E+00
  -1.500000      0.0000000E+00
  -1.490000      0.0000000E+00
  -1.480000      0.0000000E+00
  -1.470000      0.0000000E+00
  -1.460000      0.0000000E+00
  -1.450000      0.0000000E+00
  -1.440000      0.0000000E+00
  -1.430000      0.0000000E+00
  -1.420000      0.0000000E+00
  -1.410000      0.0000000E+00
  -1.400000      0.0000000E+00
  -1.390000      0.0000000E+00
  -1.380000      0.0000000E+00
  -1.370000      0.0000000E+00
  -1.360000      0.0000000E+00
  -1.350000      0.0000000E+00
  -1.340000      0.0000000E+00
  -1.330000      0.0000000E+00
  -1.320000      0.0000000E+00
  -1.310000      0.0000000E+00
  -1.300000      0.0000000E+00
  -1.290000      0.0000000E+00
  -1.280000      0.0000000E+00
  -1.270000      0.0000000E+00
  -1.260000      0.0000000E+00
  -1.250000      0.0000000E+00
  -1.240000      0.0000000E+00
  -1.230000      0.0000000E+00
  -1.220000      0.0000000E+00
  -1.210000      0.0000000E+00
  -1.200000      0.0000000E+00
  -1.190000      0.0000000E+00
  -1.180000      0.0000000E+00
  -1.170000      0.0000000E+00
  -1.160000      0.0000000E+00
  -1.150000      0.0000000E+00
  -1.140000      0.0000000E+00
  -1.130000      0.0000000E+00
  -1.120000      0.0000000E+00
  -1.110000      0.0000000E+00
  -1.100000      0.0000000E+00
  -1.090000      0.0000000E+00
  -1.080000      0.0000000E+00
  -1.070000      0.0000000E+00
  -1.060000      0.0000000E+00
  -1.050000      0.0000000E+00
  -1.040000      0.0000000E+00
  -1.030000      0.0000000E+00
  -1.020000      0.0000000E+00
  -1.010000      0.0000000E+00
  -1.000000      0.0000000E+00
 -0.9900000      0.0000000E+00
 -0.9800000      0.0000000E+00
 -0.9700000      0.0000000E+00
 -0.9600000      0.0000000E+00
 -0.9500000      0.0000000E+00
 -0.9400000      0.0000000E+00
 -0.9300000      0.0000000E+00
 -0.9200000      0.0000000E+00
 -0.9100000      0.0000000E+00
 -0.9000000      0.0000000E+00
 -0.8900000      0.0000000E+00
 -0.8800000      0.0000000E+00
 -0.8700000      0.0000000E+00
 -0.8600000      0.0000000E+00
 -0.8500000      0.0000000E+00
 -0.8400000      0.0000000E+00
 -0.8300000      0.0000000E+00
 -0.8200000      0.0000000E+00
 -0.8100000      0.0000000E+00
 -0.8000000      0.0000000E+00
 -0.7900000      0.0000000E+00
 -0.7800000      0.0000000E+00
 -0.7700000      0.0000000E+00
 -0.7600000      0.0000000E+00
 -0.7500000      0.0000000E+00
 -0.7400000      0.0000000E+00
 -0.7300000      0.0000000E+00
 -0.7200000      0.0000000E+00
 -0.7100000      0.0000000E+00
 -0.7000000      0.0000000E+00
 -0.6900000      0.0000000E+00
 -0.6800000      0.0000000E+00
 -0.6700000      0.0000000E+00
 -0.6600000      0.0000000E+00
 -0.6500000      0.0000000E+00
 -0.6400000      0.0000000E+00
 -0.6300000      0.0000000E+00
 -0.6200000      0.0000000E+00
 -0.6100000      0.0000000E+00
 -0.6000000      0.0000000E+00
 -0.5900000      0.0000000E+00
 -0.5800000      0.0000000E+00
 -0.5700000      0.0000000E+00
 -0.5600000      0.0000000E+00
 -0.5500000      0.0000000E+00
 -0.5400000      0.0000000E+00
 -0.5300000      0.0000000E+00
 -0.5200000      0.0000000E+00
 -0.5100000      0.0000000E+00
 -0.5000000      0.0000000E+00
 -0.4900000      0.0000000E+00
 -0.4800000      0.0000000E+00
 -0.4700000      0.0000000E+00
 -0.4600000      0.0000000E+00
 -0.4500000      0.0000000E+00
 -0.4400000      0.0000000E+00
 -0.4300000      0.0000000E+00
 -0.4200000      0.0000000E+00
 -0.4100000      0.0000000E+00
 -0.4000000      0.0000000E+00
 -0.3900000      0.0000000E+00
 -0.3800000      0.0000000E+00
 -0.3700000      0.0000000E+00
 -0.3600000      0.0000000E+00
 -0.3500000      0.0000000E+00
 -0.3400000      0.0000000E+00
 -0.3300000      0.0000000E+00
 -0.3200000      0.0000000E+00
 -0.3100000      0.0000000E+00
 -0.3000000      0.0000000E+00
 -0.2900000      0.0000000E+00
 -0.2800000      0.0000000E+00
 -0.2700000      0.0000000E+00
 -0.2600000      0.0000000E+00
 -0.2500000      0.0000000E+00
 -0.2400000      0.0000000E+00
 -0.2300000      0.0000000E+00
 -0.2200000      0.0000000E+00
 -0.2100000      0.0000000E+00
 -0.2000000      0.0000000E+00
 -0.1900000      0.0000000E+00
 -0.1800000      0.0000000E+00
 -0.1700000      0.0000000E+00
 -0.1600000      0.0000000E+00
 -0.1500000      0.0000000E+00
 -0.1400000      0.0000000E+00
 -0.1300000      0.0000000E+00
 -0.1200000      0.0000000E+00
 -0.1100000      0.0000000E+00
 -0.1000000      0.0000000E+00
 -9.0000004E-02  0.0000000E+00
 -7.9999998E-02  0.0000000E+00
 -7.0000000E-02  0.0000000E+00
 -5.9999999E-02  0.0000000E+00
 -5.0000001E-02  0.0000000E+00
 -3.9999999E-02  0.0000000E+00
 -2.9999999E-02  0.0000000E+00
 -2.0000000E-02  0.0000000E+00
 -9.9999998E-03  0.0000000E+00
 -3.4694470E-17  0.0000000E+00
  9.9999998E-03  0.0000000E+00
  2.0000000E-02  0.0000000E+00
  2.9999999E-02  0.0000000E+00
  3.9999999E-02  0.0000000E+00
  5.0000001E-02  0.0000000E+00
  5.9999999E-02  0.0000000E+00
  7.0000000E-02  0.0000000E+00
  7.9999998E-02  0.0000000E+00
  9.0000004E-02  0.0000000E+00
  0.1000000      0.0000000E+00
  0.1100000      0.0000000E+00
  0.1200000      0.0000000E+00
  0.1300000      0.0000000E+00
  0.1400000      0.0000000E+00
  0.1500000      0.0000000E+00
  0.1600000      0.0000000E+00
  0.1700000      0.0000000E+00
  0.1800000      0.0000000E+00
  0.1900000      0.0000000E+00
  0.2000000      0.0000000E+00
  0.2100000      0.0000000E+00
  0.2200000      0.0000000E+00
  0.2300000      0.0000000E+00
  0.2400000      0.0000000E+00
  0.2500000      0.0000000E+00
  0.2600000      0.0000000E+00
  0.2700000      0.0000000E+00
  0.2800000      0.0000000E+00
  0.2900000      0.0000000E+00
  0.3000000      0.0000000E+00
  0.3100000      0.0000000E+00
  0.3200000      0.0000000E+00
  0.3300000      0.0000000E+00
  0.3400000      0.0000000E+00
  0.3500000      0.0000000E+00
  0.3600000      0.0000000E+00
  0.3700000      0.0000000E+00
  0.3800000      0.0000000E+00
  0.3900000      0.0000000E+00
  0.4000000      0.0000000E+00
  0.4100000      0.0000000E+00
  0.4200000      0.0000000E+00
  0.4300000      0.0000000E+00
  0.4400000      0.0000000E+00
  0.4500000      0.0000000E+00
  0.4600000      0.0000000E+00
  0.4700000      0.0000000E+00
  0.4800000      0.0000000E+00
  0.4900000      0.0000000E+00
  0.5000000      0.0000000E+00
  0.5100000      0.0000000E+00
  0.5200000      0.0000000E+00
  0.5300000      0.0000000E+00
  0.5400000      0.0000000E+00
  0.5500000      0.0000000E+00
  0.5600000      0.0000000E+00
  0.5700000      0.0000000E+00
  0.5800000      0.0000000E+00
  0.5900000      0.0000000E+00
  0.6000000      0.0000000E+00
  0.6100000      0.0000000E+00
  0.6200000      0.0000000E+00
  0.6300000      0.0000000E+00
  0.6400000      0.0000000E+00
  0.6500000      0.0000000E+00
  0.6600000      0.0000000E+00
  0.6700000      0.0000000E+00
  0.6800000      0.0000000E+00
  0.6900000      0.0000000E+00
  0.7000000      0.0000000E+00
  0.7100000      0.0000000E+00
  0.7200000      0.0000000E+00
  0.7300000      0.0000000E+00
  0.7400000      0.0000000E+00
  0.7500000      0.0000000E+00
  0.7600000      0.0000000E+00
  0.7700000      0.0000000E+00
  0.7800000      0.0000000E+00
  0.7900000      0.0000000E+00
  0.8000000      0.0000000E+00
  0.8100000      0.0000000E+00
  0.8200000      0.0000000E+00
  0.8300000      0.0000000E+00
  0.8400000      0.0000000E+00
  0.8500000      0.0000000E+00
  0.8600000      0.0000000E+00
  0.8700000      0.0000000E+00
  0.8800000      0.0000000E+00
  0.8900000      0.0000000E+00
  0.9000000      0.0000000E+00
  0.9100000      0.0000000E+00
  0.9200000      0.0000000E+00
  0.9300000      0.0000000E+00
  0.9400000      0.0000000E+00
  0.9500000      0.0000000E+00
  0.9600000      0.0000000E+00
  0.9700000      0.0000000E+00
  0.9800000      0.0000000E+00
  0.9900000      0.0000000E+00
   1.000000      0.0000000E+00
   1.010000      0.0000000E+00
   1.020000      0.0000000E+00
   1.030000      0.0000000E+00
   1.040000      0.0000000E+00
   1.050000      0.0000000E+00
   1.060000      0.0000000E+00
   1.070000      0.0000000E+00
   1.080000      0.0000000E+00
   1.090000      0.0000000E+00
   1.100000      0.0000000E+00
   1.110000      0.0000000E+00
   1.120000      0.0000000E+00
   1.130000      0.0000000E+00
   1.140000      0.0000000E+00
   1.150000      0.0000000E+00
   1.160000      0.0000000E+00
   1.170000      0.0000000E+00
   1.180000      0.0000000E+00
   1.190000      0.0000000E+00
   1.200000      0.0000000E+00
   1.210000      0.0000000E+00
   1.220000      0.0000000E+00
   1.230000      0.0000000E+00
   1.240000      0.0000000E+00
   1.250000      0.0000000E+00
   1.260000      0.0000000E+00
   1.270000      0.0000000E+00
   1.280000      0.0000000E+00
   1.290000      0.0000000E+00
   1.300000      0.0000000E+00
   1.310000      0.0000000E+00
   1.320000      0.0000000E+00
   1.330000      0.0000000E+00
   1.340000      0.0000000E+00
   1.350000      0.0000000E+00
   1.360000      0.0000000E+00
   1.370000      0.0000000E+00
   1.380000      0.0000000E+00
   1.390000      0.0000000E+00
   1.400000      0.0000000E+00
   1.410000      0.0000000E+00
   1.420000      0.0000000E+00
   1.430000      0.0000000E+00
   1.440000      0.0000000E+00
   1.450000      0.0000000E+00
   1.460000      0.0000000E+00
   1.470000      0.0000000E+00
   1.480000      0.0000000E+00
   1.490000      0.0000000E+00
   1.500000      0.0000000E+00
   1.510000      0.0000000E+00
   1.520000      0.0000000E+00
   1.530000      0.0000000E+00
   1.540000      0.0000000E+00
   1.550000      0.0000000E+00
   1.560000      0.0000000E+00
   1.570000      0.0000000E+00
   1.580000      0.0000000E+00
   1.590000      0.0000000E+00
   1.600000      0.0000000E+00
   1.610000      0.0000000E+00
   1.620000      0.0000000E+00
   1.630000      0.0000000E+00
   1.640000      0.0000000E+00
   1.650000      0.0000000E+00
   1.660000      0.0000000E+00
   1.670000      0.0000000E+00
   1.680000      0.0000000E+00
   1.690000      0.0000000E+00
   1.700000      0.0000000E+00
   1.710000      0.0000000E+00
   1.720000      0.0000000E+00
   1.730000      0.0000000E+00
   1.740000      0.0000000E+00
   1.750000      0.0000000E+00
   1.760000      0.0000000E+00
   1.770000      0.0000000E+00
   1.780000      0.0000000E+00
   1.790000      0.0000000E+00
   1.800000      0.0000000E+00
   1.810000      0.0000000E+00
   1.820000      0.0000000E+00
   1.830000      0.0000000E+00
   1.840000      0.0000000E+00
   1.850000      0.0000000E+00
   1.860000      0.0000000E+00
   1.870000      0.0000000E+00
   1.880000      0.0000000E+00
   1.890000      0.0000000E+00
   1.900000      0.0000000E+00
   1.910000      0.0000000E+00
   1.920000      0.0000000E+00
   1.930000      0.0000000E+00
   1.940000      0.0000000E+00
   1.950000      0.0000000E+00
   1.960000      0.0000000E+00
   1.970000      0.0000000E+00
   1.980000      0.0000000E+00
   1.990000      0.0000000E+00
   2.000000      0.0000000E+00
   2.010000      0.0000000E+00
   2.020000      0.0000000E+00
   2.030000      0.0000000E+00
   2.040000      0.0000000E+00
   2.050000      0.0000000E+00
   2.060000      0.0000000E+00
   2.070000      0.0000000E+00
   2.080000      0.0000000E+00
   2.090000      0.0000000E+00
   2.100000      0.0000000E+00
   2.110000      0.0000000E+00
   2.120000      0.0000000E+00
   2.130000      0.0000000E+00
   2.140000      0.0000000E+00
   2.150000      0.0000000E+00
   2.160000      0.0000000E+00
   2.170000      0.0000000E+00
   2.180000      0.0000000E+00
   2.190000      0.0000000E+00
   2.200000      0.0000000E+00
   2.210000      0.0000000E+00
   2.220000      0.0000000E+00
   2.230000      0.0000000E+00
   2.240000      0.0000000E+00
   2.250000      0.0000000E+00
   2.260000      0.0000000E+00
   2.270000      0.0000000E+00
   2.280000      0.0000000E+00
   2.290000      0.0000000E+00
   2.300000      0.0000000E+00
   2.310000      0.0000000E+00
   2.320000      0.0000000E+00
   2.330000      0.0000000E+00
   2.340000      0.0000000E+00
   2.350000      0.0000000E+00
   2.360000      0.0000000E+00
   2.370000      0.0000000E+00
   2.380000      0.0000000E+00
   2.390000      0.0000000E+00
   2.400000      0.0000000E+00
   2.410000      0.0000000E+00
   2.420000      0.0000000E+00
   2.430000      0.0000000E+00
   2.440000      0.0000000E+00
   2.450000      0.0000000E+00
   2.460000      0.0000000E+00
   2.470000      0.0000000E+00
   2.480000      0.0000000E+00
   2.490000      0.0000000E+00
   2.500000      0.0000000E+00
   2.510000      0.0000000E+00
   2.520000      0.0000000E+00
   2.530000      0.0000000E+00
   2.540000      0.0000000E+00
   2.550000      0.0000000E+00
   2.560000      0.0000000E+00
   2.570000      0.0000000E+00
   2.580000      0.0000000E+00
   2.590000      0.0000000E+00
   2.600000      0.0000000E+00
   2.610000      0.0000000E+00
   2.620000      0.0000000E+00
   2.630000      0.0000000E+00
   2.640000      0.0000000E+00
   2.650000      0.0000000E+00
   2.660000      0.0000000E+00
   2.670000      0.0000000E+00
   2.680000      0.0000000E+00
   2.690000      0.0000000E+00
   2.700000      0.0000000E+00
   2.710000      0.0000000E+00
   2.720000      0.0000000E+00
   2.730000      0.0000000E+00
   2.740000      0.0000000E+00
   2.750000      0.0000000E+00
   2.760000      0.0000000E+00
   2.770000      0.0000000E+00
   2.780000      0.0000000E+00
   2.790000      0.0000000E+00
   2.800000      0.0000000E+00
   2.810000      0.0000000E+00
   2.820000      0.0000000E+00
   2.830000      0.0000000E+00
   2.840000      0.0000000E+00
   2.850000      0.0000000E+00
   2.860000      0.0000000E+00
   2.870000      0.0000000E+00
   2.880000      0.0000000E+00
   2.890000      0.0000000E+00
   2.900000      0.0000000E+00
   2.910000      0.0000000E+00
   2.920000      0.0000000E+00
   2.930000      0.0000000E+00
   2.940000      0.0000000E+00
   2.950000      0.0000000E+00
   2.960000      0.0000000E+00
   2.970000      0.0000000E+00
   2.980000      0.0000000E+00
   2.990000      0.0000000E+00
   3.000000      0.0000000E+00
   3.010000      0.0000000E+00
   3.020000      0.0000000E+00
   3.030000      0.0000000E+00
   3.040000      0.0000000E+00
   3.050000      0.0000000E+00
   3.060000      0.0000000E+00
   3.070000      0.0000000E+00
   3.080000      0.0000000E+00
   3.090000      0.0000000E+00
   3.100000      0.0000000E+00
   3.110000      0.0000000E+00
   3.120000      0.0000000E+00
   3.130000      0.0000000E+00
   3.140000      0.0000000E+00
   3.150000      0.0000000E+00
   3.160000      0.0000000E+00
   3.170000      0.0000000E+00
   3.180000      0.0000000E+00
   3.190000      0.0000000E+00
   3.200000      0.0000000E+00
   3.210000      0.0000000E+00
   3.220000      1.4071459E-38
   3.230000      1.6954942E-38
   3.240000      1.9383242E-38
   3.250000      2.1429884E-38
   3.260000      2.3414149E-38
   3.270000      2.5517362E-38
   3.280000      2.7609016E-38
   3.290000      2.9519947E-38
   3.300000      3.1198969E-38
   3.310000      3.2675918E-38
   3.320000      3.4177549E-38
   3.330000      3.5483282E-38
   3.340000      3.6605164E-38
   3.350000      3.7655266E-38
   3.360000      3.8779649E-38
   3.370000      4.0384068E-38
   3.380000      4.2829138E-38
   3.390000      4.5727015E-38
   3.400000      4.8197672E-38
   3.410000      5.0372627E-38
   3.420000      5.2831788E-38
   3.430000      5.4606443E-38
   3.440000      5.5854294E-38
   3.450000      5.6297412E-38
   3.460000      5.5364349E-38
   3.470000      5.3895155E-38
   3.480000      5.1430815E-38
   3.490000      4.7623330E-38
   3.500000      4.3837633E-38
   3.510000      4.0174465E-38
   3.520000      3.5448586E-38
   3.530000      2.9209879E-38
   3.540000      2.0861960E-38
   3.550000      0.0000000E+00
   3.560000      0.0000000E+00
   3.570000     -1.6296703E-38
   3.580000     -3.2354964E-38
   3.590000     -4.9972086E-38
   3.600000     -6.9405018E-38
   3.610000     -8.8235527E-38
   3.620000     -1.0459321E-37
   3.630000     -1.2133991E-37
   3.640000     -1.3895440E-37
   3.650000     -1.5768393E-37
   3.660000     -1.7848176E-37
   3.670000     -2.0112027E-37
   3.680000     -2.2524395E-37
   3.690000     -2.5199698E-37
   3.700000     -2.8446879E-37
   3.710000     -3.1750264E-37
   3.720000     -3.4696235E-37
   3.730000     -3.9029171E-37
   3.740000     -4.4925840E-37
   3.750000     -5.1102301E-37
   3.760000     -5.6462566E-37
   3.770000     -6.0425048E-37
   3.780000     -6.4425583E-37
   3.790000     -6.7133465E-37
   3.800000     -6.8145934E-37
   3.810000     -6.9304393E-37
   3.820000     -7.0671858E-37
   3.830000     -7.2625111E-37
   3.840000     -7.5011251E-37
   3.850000     -7.6813774E-37
   3.860000     -7.7356132E-37
   3.870000     -7.6635896E-37
   3.880000     -7.3122032E-37
   3.890000     -6.7162814E-37
   3.900000     -6.0708312E-37
   3.910000     -5.5007929E-37
   3.920000     -5.0273455E-37
   3.930000     -4.6395494E-37
   3.940000     -4.4416031E-37
   3.950000     -4.3005141E-37
   3.960000     -4.0840380E-37
   3.970000     -3.8026124E-37
   3.980000     -3.4210810E-37
   3.990000     -2.9460269E-37
   4.000000     -2.3621255E-37
   4.010000     -1.6226362E-37
   4.020000     -7.3294563E-38
   4.030000      7.3064896E-38
   4.040000      2.7677723E-37
   4.050000      5.1408179E-37
   4.060000      7.9941732E-37
   4.070000      1.1235565E-36
   4.080000      1.4776828E-36
   4.090000      1.8415119E-36
   4.100000      2.2204689E-36
   4.110000      2.6012973E-36
   4.120000      2.9662797E-36
   4.130000      3.3073998E-36
   4.140000      3.6325071E-36
   4.150000      3.9383814E-36
   4.160000      4.2230560E-36
   4.170000      4.4863107E-36
   4.180000      4.6883305E-36
   4.190000      4.8427078E-36
   4.200000      5.0648370E-36
   4.210000      5.3535061E-36
   4.220000      5.7110196E-36
   4.230000      6.1668332E-36
   4.240000      6.5746847E-36
   4.250000      6.9433977E-36
   4.260000      7.3494046E-36
   4.270000      7.7558104E-36
   4.280000      8.1041460E-36
   4.290000      8.3889954E-36
   4.300000      8.5703726E-36
   4.310000      8.6354804E-36
   4.320000      8.6255442E-36
   4.330000      8.5253445E-36
   4.340000      8.2910636E-36
   4.350000      7.8317082E-36
   4.360000      7.2246741E-36
   4.370000      6.5446997E-36
   4.380000      5.7731502E-36
   4.390000      4.9634535E-36
   4.400000      4.0968963E-36
   4.410000      3.1992118E-36
   4.420000      2.4141016E-36
   4.430000      1.6169973E-36
   4.440000      6.8057936E-37
   4.450000     -5.2713575E-37
   4.460000     -2.0628437E-36
   4.470000     -3.7207718E-36
   4.480000     -5.5454771E-36
   4.490000     -7.6429267E-36
   4.500000     -9.9525363E-36
   4.510000     -1.2679365E-35
   4.520000     -1.6055212E-35
   4.530000     -1.9850535E-35
   4.540000     -2.3471764E-35
   4.550000     -2.6631200E-35
   4.560000     -2.9287674E-35
   4.570000     -3.1543955E-35
   4.580000     -3.3786644E-35
   4.590000     -3.6203550E-35
   4.600000     -3.8914023E-35
   4.610000     -4.1707073E-35
   4.620000     -4.4361613E-35
   4.630000     -4.7060139E-35
   4.640000     -4.9930161E-35
   4.650000     -5.2876238E-35
   4.660000     -5.5704117E-35
   4.670000     -5.8622253E-35
   4.680000     -6.1488904E-35
   4.690000     -6.3998751E-35
   4.700000     -6.6163618E-35
   4.710000     -6.7968725E-35
   4.720000     -6.9443833E-35
   4.730000     -7.0586989E-35
   4.740000     -7.1371953E-35
   4.750000     -7.1786108E-35
   4.760000     -7.1785598E-35
   4.770000     -7.1061239E-35
   4.780000     -6.9060770E-35
   4.790000     -6.6045219E-35
   4.800000     -6.2307457E-35
   4.810000     -6.2994254E-35
   4.820000     -6.8727998E-35
   4.830000     -7.2195620E-35
   4.840000     -7.3332015E-35
   4.850000     -7.4250416E-35
   4.860000     -7.4917900E-35
   4.870000     -7.5558286E-35
   4.880000     -7.4308795E-35
   4.890000     -6.4344581E-35
   4.900000     -4.6811528E-35
   4.910000     -2.5805152E-35
   4.920000     -6.7745646E-37
   4.930000      2.6456521E-35
   4.940000      5.3464158E-35
   4.950000      7.8534938E-35
   4.960000      1.0279458E-34
   4.970000      1.2802333E-34
   4.980000      1.5382391E-34
   4.990000      1.7968183E-34
   5.000000      2.0391402E-34
   5.010000      2.2930460E-34
   5.020000      2.5915201E-34
   5.030000      2.9138916E-34
   5.040000      3.2529749E-34
   5.050000      3.6049432E-34
   5.060000      3.9651247E-34
   5.070000      4.3351561E-34
   5.080000      4.7029977E-34
   5.090000      5.0644732E-34
   5.100000      5.4534888E-34
   5.110000      5.8336722E-34
   5.120000      6.1538925E-34
   5.130000      6.4323946E-34
   5.140000      6.6772207E-34
   5.150000      6.8761685E-34
   5.160000      7.0553612E-34
   5.170000      7.2365388E-34
   5.180000      7.3968400E-34
   5.190000      7.4770000E-34
   5.200000      7.5317307E-34
   5.210000      7.6266909E-34
   5.220000      7.7183620E-34
   5.230000      7.8014144E-34
   5.240000      7.8255001E-34
   5.250000      7.7881790E-34
   5.260000      7.7328904E-34
   5.270000      7.6720214E-34
   5.280000      7.5855459E-34
   5.290000      7.4389332E-34
   5.300000      7.2455456E-34
   5.310000      7.0004679E-34
   5.320000      6.7064024E-34
   5.330000      6.3513218E-34
   5.340000      5.8862485E-34
   5.350000      5.3260001E-34
   5.360000      4.6801224E-34
   5.370000      3.9247167E-34
   5.380000      3.0420644E-34
   5.390000      2.0343264E-34
   5.400000      9.0504909E-35
   5.410000     -3.7347645E-35
   5.420000     -1.7772960E-34
   5.430000     -3.2736822E-34
   5.440000     -4.8993209E-34
   5.450000     -6.6842140E-34
   5.460000     -8.6214539E-34
   5.470000     -1.0698484E-33
   5.480000     -1.2908460E-33
   5.490000     -1.5245189E-33
   5.500000     -1.7698254E-33
   5.510000     -2.0258266E-33
   5.520000     -2.2917877E-33
   5.530000     -2.5650482E-33
   5.540000     -2.8459998E-33
   5.550000     -3.1369903E-33
   5.560000     -3.4351313E-33
   5.570000     -3.7367720E-33
   5.580000     -4.0420383E-33
   5.590000     -4.3523505E-33
   5.600000     -4.6668676E-33
   5.610000     -4.9841578E-33
   5.620000     -5.3033963E-33
   5.630000     -5.6232560E-33
   5.640000     -5.9422231E-33
   5.650000     -6.2587632E-33
   5.660000     -6.5712948E-33
   5.670000     -6.8783273E-33
   5.680000     -7.1808349E-33
   5.690000     -7.4777721E-33
   5.700000     -7.7659240E-33
   5.710000     -8.0419279E-33
   5.720000     -8.3030412E-33
   5.730000     -8.5471304E-33
   5.740000     -8.7699394E-33
   5.750000     -8.9669787E-33
   5.760000     -9.1346579E-33
   5.770000     -9.2701218E-33
   5.780000     -9.3693071E-33
   5.790000     -9.4279893E-33
   5.800000     -9.4419240E-33
   5.810000     -9.4064292E-33
   5.820000     -9.3157126E-33
   5.830000     -9.1666666E-33
   5.840000     -8.9563956E-33
   5.850000     -8.6793867E-33
   5.860000     -8.3305066E-33
   5.870000     -7.9060775E-33
   5.880000     -7.4026940E-33
   5.890000     -6.8156331E-33
   5.900000     -6.1408475E-33
   5.910000     -5.3749652E-33
   5.920000     -4.5146187E-33
   5.930000     -3.5564567E-33
   5.940000     -2.4973559E-33
   5.950000     -1.3345159E-33
   5.960000     -6.6907549E-35
   5.970000      1.3095758E-33
   5.980000      2.7988442E-33
   5.990000      4.4013216E-33
   6.000000      6.1186832E-33
   6.010000      7.9525661E-33
   6.020000      9.9043363E-33
   6.030000      1.1974827E-32
   6.040000      1.4164632E-32
   6.050000      1.6473936E-32
   6.060000      1.8902478E-32
   6.070000      2.1449497E-32
   6.080000      2.4113658E-32
   6.090000      2.6892998E-32
   6.100000      2.9786536E-32
   6.110000      3.2788834E-32
   6.120000      3.5894152E-32
   6.130000      3.9099199E-32
   6.140000      4.2397574E-32
   6.150000      4.5782005E-32
   6.160000      4.9244271E-32
   6.170000      5.2775024E-32
   6.180000      5.6363520E-32
   6.190000      5.9997843E-32
   6.200000      6.3664768E-32
   6.210000      6.7349743E-32
   6.220000      7.1036875E-32
   6.230000      7.4708873E-32
   6.240000      7.8346593E-32
   6.250000      8.1931222E-32
   6.260000      8.5441089E-32
   6.270000      8.8852186E-32
   6.280000      9.2141089E-32
   6.290000      9.5282310E-32
   6.300000      9.8249093E-32
   6.310000      1.0101340E-31
   6.320000      1.0354592E-31
   6.330000      1.0581634E-31
   6.340000      1.0779280E-31
   6.350000      1.0944224E-31
   6.360000      1.1073093E-31
   6.370000      1.1162383E-31
   6.380000      1.1208484E-31
   6.390000      1.1207678E-31
   6.400000      1.1156182E-31
   6.410000      1.1050125E-31
   6.420000      1.0885522E-31
   6.430000      1.0658331E-31
   6.440000      1.0364442E-31
   6.450000      9.9997000E-32
   6.460000      9.5599029E-32
   6.470000      9.0408234E-32
   6.480000      8.4382215E-32
   6.490000      7.7478649E-32
   6.500000      6.9655464E-32
   6.510000      6.0871071E-32
   6.520000      5.1084592E-32
   6.530000      4.0256100E-32
   6.540000      2.8346899E-32
   6.550000      1.5319820E-32
   6.560000      1.1395415E-33
   6.570000     -1.4227105E-32
   6.580000     -3.0810777E-32
   6.590000     -4.8639267E-32
   6.600000     -6.7737157E-32
   6.610000     -8.8125407E-32
   6.620000     -1.0982099E-31
   6.630000     -1.3283649E-31
   6.640000     -1.5717966E-31
   6.650000     -1.8285308E-31
   6.660000     -2.0985372E-31
   6.670000     -2.3817246E-31
   6.680000     -2.6779386E-31
   6.690000     -2.9869549E-31
   6.700000     -3.3084780E-31
   6.710000     -3.6421348E-31
   6.720000     -3.9874710E-31
   6.730000     -4.3439486E-31
   6.740000     -4.7109398E-31
   6.750000     -5.0877239E-31
   6.760000     -5.4734835E-31
   6.770000     -5.8672990E-31
   6.780000     -6.2681478E-31
   6.790000     -6.6748980E-31
   6.800000     -7.0863041E-31
   6.810000     -7.5010062E-31
   6.820000     -7.9175253E-31
   6.830000     -8.3342568E-31
   6.840000     -8.7494734E-31
   6.850000     -9.1613177E-31
   6.860000     -9.5678009E-31
   6.870000     -9.9668003E-31
   6.880000     -1.0356061E-30
   6.890000     -1.0733186E-30
   6.900000     -1.1095646E-30
   6.910000     -1.1440770E-30
   6.920000     -1.1765749E-30
   6.930000     -1.2067638E-30
   6.940000     -1.2343356E-30
   6.950000     -1.2589687E-30
   6.960000     -1.2803287E-30
   6.970000     -1.2980685E-30
   6.980000     -1.3118283E-30
   6.990000     -1.3212367E-30
   7.000000     -1.3259116E-30
   7.010000     -1.3254603E-30
   7.020000     -1.3194806E-30
   7.030000     -1.3075617E-30
   7.040000     -1.2892856E-30
   7.050000     -1.2642279E-30
   7.060000     -1.2319589E-30