  -2.600000      0.0000000E+00
  -2.590000      0.0000000E+00
  -2.580000      0.0000000E+00
  -2.570000      0.0000000E+00
  -2.560000      0.0000000E+00
  -2.550000      0.0000000E+00
  -2.540000      0.0000000E+00
  -2.530000      0.0000000E+00
  -2.520000      0.0000000E+00
  -2.510000      0.0000000E+00
  -2.500000      0.0000000E+00
  -2.490000      0.0000000E+00
  -2.480000      0.0000000E+00
  -2.470000      0.0000000E+00
  -2.460000      0.0000000E+00
  -2.450000      0.0000000E+00
  -2.440000      0.0000000E+00
  -2.430000      0.0000000E+00
  -2.420000      0.0000000E+00
  -2.410000      0.0000000E+00
  -2.400000      0.0000000E+00
  -2.390000      0.0000000E+00
  -2.380000      0.0000000E+00
  -2.370000      0.0000000E+00
  -2.360000      0.0000000E+00
  -2.350000      0.0000000E+00
  -2.340000      0.0000000E+00
  -2.330000      0.0000000E+00
  -2.320000      0.0000000E+00
  -2.310000      0.0000000E+00
  -2.300000      0.0000000E+00
  -2.290000      0.0000000E+00
  -2.280000      0.0000000E+00
  -2.270000      0.0000000E+00
  -2.260000      0.0000000E+00
  -2.250000      0.0000000E+00
  -2.240000      0.0000000E+00
  -2.230000      0.0000000E+00
  -2.220000      0.0000000E+00
  -2.210000      0.0000000E+00
  -2.200000      0.0000000E+00
  -2.190000      0.0000000E+00
  -2.180000      0.0000000E+00
  -2.170000      0.0000000E+00
  -2.160000      0.0000000E+00
  -2.150000      0.0000000E+00
  -2.140000      0.0000000E+00
  -2.130000      0.0000000E+00
  -2.120000      0.0000000E+00
  -2.110000      0.0000000E+00
  -2.100000      0.0000000E+00
  -2.090000      0.0000000E+00
  -2.080000      0.0000000E+00
  -2.070000      0.0000000E+00
  -2.060000      0.0000000E+00
  -2.050000      0.0000000E+00
  -2.040000      0.0000000E+00
  -2.030000      0.0000000E+00
  -2.020000      0.0000000E+00
  -2.010000      0.0000000E+00
  -2.000000      0.0000000E+00
  -1.990000      0.0000000E+00
  -1.980000      0.0000000E+00
  -1.970000      0.0000000E+00
  -1.960000      0.0000000E+00
  -1.950000      0.0000000E+00
  -1.940000      0.0000000E+00
  -1.930000      0.0000000E+00
  -1.920000      0.0000000E+00
  -1.910000      0.0000000E+00
  -1.900000      0.0000000E+00
  -1.890000      0.0000000E+00
  -1.880000      0.0000000E+00
  -1.870000      0.0000000E+00
  -1.860000      0.0000000E+00
  -1.850000      0.0000000E+00
  -1.840000      0.0000000E+00
  -1.830000      0.0000000E+00
  -1.820000      0.0000000E+00
  -1.810000      0.0000000E+00
  -1.800000      0.0000000E+00
  -1.790000      0.0000000E+00
  -1.780000      0.0000000E+00
  -1.770000      0.0000000E+00
  -1.760000      0.0000000E+00
  -1.750000      0.0000000E+00
  -1.740000      0.0000000E+00
  -1.730000      0.0000000E+00
  -1.720000      0.0000000E+00
  -1.710000      0.0000000E+00
  -1.700000      0.0000000E+00
  -1.690000      0.0000000E+00
  -1.680000      0.0000000E+00
  -1.670000      0.0000000E+00
  -1.660000      0.0000000E+00
  -1.650000      0.0000000E+00
  -1.640000      0.0000000E+00
  -1.630000      0.0000000E+00
  -1.620000      0.0000000E+00
  -1.610000      0.0000000E+00
  -1.600000      0.0000000E+00
  -1.590000      0.0000000E+00
  -1.580000      0.0000000E+00
  -1.570000      0.0000000E+00
  -1.560000      0.0000000E+00
  -1.550000      0.0000000E+00
  -1.540000      0.0000000E+00
  -1.530000      0.0000000E+00
  -1.520000      0.0000000E+00
  -1.510000      0.0000000E+00
  -1.500000      0.0000000E+00
  -1.490000      0.0000000E+00
  -1.480000      0.0000000E+00
  -1.470000      0.0000000E+00
  -1.460000      0.0000000E+00
  -1.450000      0.0000000E+00
  -1.440000      0.0000000E+00
  -1.430000      0.0000000E+00
  -1.420000      0.0000000E+00
  -1.410000      0.0000000E+00
  -1.400000      0.0000000E+00
  -1.390000      0.0000000E+00
  -1.380000      0.0000000E+00
  -1.370000      0.0000000E+00
  -1.360000      0.0000000E+00
  -1.350000      0.0000000E+00
  -1.340000      0.0000000E+00
  -1.330000      0.0000000E+00
  -1.320000      0.0000000E+00
  -1.310000      0.0000000E+00
  -1.300000      0.0000000E+00
  -1.290000      0.0000000E+00
  -1.280000      0.0000000E+00
  -1.270000      0.0000000E+00
  -1.260000      0.0000000E+00
  -1.250000      0.0000000E+00
  -1.240000      0.0000000E+00
  -1.230000      0.0000000E+00
  -1.220000      0.0000000E+00
  -1.210000      0.0000000E+00
  -1.200000      0.0000000E+00
  -1.190000      0.0000000E+00
  -1.180000      0.0000000E+00
  -1.170000      0.0000000E+00
  -1.160000      0.0000000E+00
  -1.150000      0.0000000E+00
  -1.140000      0.0000000E+00
  -1.130000      0.0000000E+00
  -1.120000      0.0000000E+00
  -1.110000      0.0000000E+00
  -1.100000      0.0000000E+00
  -1.090000      0.0000000E+00
  -1.080000      0.0000000E+00
  -1.070000      0.0000000E+00
  -1.060000      0.0000000E+00
  -1.050000      0.0000000E+00
  -1.040000      0.0000000E+00
  -1.030000      0.0000000E+00
  -1.020000      0.0000000E+00
  -1.010000      0.0000000E+00
  -1.000000      0.0000000E+00
 -0.9900000      0.0000000E+00
 -0.9800000      0.0000000E+00
 -0.9700000      0.0000000E+00
 -0.9600000      0.0000000E+00
 -0.9500000      0.0000000E+00
 -0.9400000      0.0000000E+00
 -0.9300000      0.0000000E+00
 -0.9200000      0.0000000E+00
 -0.9100000      0.0000000E+00
 -0.9000000      0.0000000E+00
 -0.8900000      0.0000000E+00
 -0.8800000      0.0000000E+00
 -0.8700000      0.0000000E+00
 -0.8600000      0.0000000E+00
 -0.8500000      0.0000000E+00
 -0.8400000      0.0000000E+00
 -0.8300000      0.0000000E+00
 -0.8200000      0.0000000E+00
 -0.8100000      0.0000000E+00
 -0.8000000      0.0000000E+00
 -0.7900000      0.0000000E+00
 -0.7800000      0.0000000E+00
 -0.7700000      0.0000000E+00
 -0.7600000      0.0000000E+00
 -0.7500000      0.0000000E+00
 -0.7400000      0.0000000E+00
 -0.7300000      0.0000000E+00
 -0.7200000      0.0000000E+00
 -0.7100000      0.0000000E+00
 -0.7000000      0.0000000E+00
 -0.6900000      0.0000000E+00
 -0.6800000      0.0000000E+00
 -0.6700000      0.0000000E+00
 -0.6600000      0.0000000E+00
 -0.6500000      0.0000000E+00
 -0.6400000      0.0000000E+00
 -0.6300000      0.0000000E+00
 -0.6200000      0.0000000E+00
 -0.6100000      0.0000000E+00
 -0.6000000      0.0000000E+00
 -0.5900000      0.0000000E+00
 -0.5800000      0.0000000E+00
 -0.5700000      0.0000000E+00
 -0.5600000      0.0000000E+00
 -0.5500000      0.0000000E+00
 -0.5400000      0.0000000E+00
 -0.5300000      0.0000000E+00
 -0.5200000      0.0000000E+00
 -0.5100000      0.0000000E+00
 -0.5000000      0.0000000E+00
 -0.4900000      0.0000000E+00
 -0.4800000      0.0000000E+00
 -0.4700000      0.0000000E+00
 -0.4600000      0.0000000E+00
 -0.4500000      0.0000000E+00
 -0.4400000      0.0000000E+00
 -0.4300000      0.0000000E+00
 -0.4200000      0.0000000E+00
 -0.4100000      0.0000000E+00
 -0.4000000      0.0000000E+00
 -0.3900000      0.0000000E+00
 -0.3800000      0.0000000E+00
 -0.3700000      0.0000000E+00
 -0.3600000      0.0000000E+00
 -0.3500000      0.0000000E+00
 -0.3400000      0.0000000E+00
 -0.3300000      0.0000000E+00
 -0.3200000      0.0000000E+00
 -0.3100000      0.0000000E+00
 -0.3000000      0.0000000E+00
 -0.2900000      0.0000000E+00
 -0.2800000      0.0000000E+00
 -0.2700000      0.0000000E+00
 -0.2600000      0.0000000E+00
 -0.2500000      0.0000000E+00
 -0.2400000      0.0000000E+00
 -0.2300000      0.0000000E+00
 -0.2200000      0.0000000E+00
 -0.2100000      0.0000000E+00
 -0.2000000      0.0000000E+00
 -0.1900000      0.0000000E+00
 -0.1800000      0.0000000E+00
 -0.1700000      0.0000000E+00
 -0.1600000      0.0000000E+00
 -0.1500000      0.0000000E+00
 -0.1400000      0.0000000E+00
 -0.1300000      0.0000000E+00
 -0.1200000      0.0000000E+00
 -0.1100000      0.0000000E+00
 -0.1000000      0.0000000E+00
 -9.0000004E-02  0.0000000E+00
 -7.9999998E-02  0.0000000E+00
 -7.0000000E-02  0.0000000E+00
 -5.9999999E-02  0.0000000E+00
 -5.0000001E-02  0.0000000E+00
 -3.9999999E-02  0.0000000E+00
 -2.9999999E-02  0.0000000E+00
 -2.0000000E-02  0.0000000E+00
 -9.9999998E-03  0.0000000E+00
 -3.4694470E-17  0.0000000E+00
  9.9999998E-03  0.0000000E+00
  2.0000000E-02  0.0000000E+00
  2.9999999E-02  0.0000000E+00
  3.9999999E-02  0.0000000E+00
  5.0000001E-02  0.0000000E+00
  5.9999999E-02  0.0000000E+00
  7.0000000E-02  0.0000000E+00
  7.9999998E-02  0.0000000E+00
  9.0000004E-02  0.0000000E+00
  0.1000000      0.0000000E+00
  0.1100000      0.0000000E+00
  0.1200000      0.0000000E+00
  0.1300000      0.0000000E+00
  0.1400000      0.0000000E+00
  0.1500000      0.0000000E+00
  0.1600000      0.0000000E+00
  0.1700000      0.0000000E+00
  0.1800000      0.0000000E+00
  0.1900000      0.0000000E+00
  0.2000000      0.0000000E+00
  0.2100000      0.0000000E+00
  0.2200000      0.0000000E+00
  0.2300000      0.0000000E+00
  0.2400000      0.0000000E+00
  0.2500000      0.0000000E+00
  0.2600000      0.0000000E+00
  0.2700000      0.0000000E+00
  0.2800000      0.0000000E+00
  0.2900000      0.0000000E+00
  0.3000000      0.0000000E+00
  0.3100000      0.0000000E+00
  0.3200000      0.0000000E+00
  0.3300000      0.0000000E+00
  0.3400000      0.0000000E+00
  0.3500000      0.0000000E+00
  0.3600000      0.0000000E+00
  0.3700000      0.0000000E+00
  0.3800000      0.0000000E+00
  0.3900000      0.0000000E+00
  0.4000000      0.0000000E+00
  0.4100000      0.0000000E+00
  0.4200000      0.0000000E+00
  0.4300000      0.0000000E+00
  0.4400000      0.0000000E+00
  0.4500000      0.0000000E+00
  0.4600000      0.0000000E+00
  0.4700000      0.0000000E+00
  0.4800000      0.0000000E+00
  0.4900000      0.0000000E+00
  0.5000000      0.0000000E+00
  0.5100000      0.0000000E+00
  0.5200000      0.0000000E+00
  0.5300000      0.0000000E+00
  0.5400000      0.0000000E+00
  0.5500000      0.0000000E+00
  0.5600000      0.0000000E+00
  0.5700000      0.0000000E+00
  0.5800000      0.0000000E+00
  0.5900000      0.0000000E+00
  0.6000000      0.0000000E+00
  0.6100000      0.0000000E+00
  0.6200000      0.0000000E+00
  0.6300000      0.0000000E+00
  0.6400000      0.0000000E+00
  0.6500000      0.0000000E+00
  0.6600000      0.0000000E+00
  0.6700000      0.0000000E+00
  0.6800000      0.0000000E+00
  0.6900000      0.0000000E+00
  0.7000000      0.0000000E+00
  0.7100000      0.0000000E+00
  0.7200000      0.0000000E+00
  0.7300000      0.0000000E+00
  0.7400000      0.0000000E+00
  0.7500000      0.0000000E+00
  0.7600000      0.0000000E+00
  0.7700000      0.0000000E+00
  0.7800000      0.0000000E+00
  0.7900000      0.0000000E+00
  0.8000000      0.0000000E+00
  0.8100000      0.0000000E+00
  0.8200000      0.0000000E+00
  0.8300000      0.0000000E+00
  0.8400000      0.0000000E+00
  0.8500000      0.0000000E+00
  0.8600000      0.0000000E+00
  0.8700000      0.0000000E+00
  0.8800000      0.0000000E+00
  0.8900000      0.0000000E+00
  0.9000000      0.0000000E+00
  0.9100000      0.0000000E+00
  0.9200000      0.0000000E+00
  0.9300000      0.0000000E+00
  0.9400000      0.0000000E+00
  0.9500000      0.0000000E+00
  0.9600000      0.0000000E+00
  0.9700000      0.0000000E+00
  0.9800000      0.0000000E+00
  0.9900000      0.0000000E+00
   1.000000      0.0000000E+00
   1.010000      0.0000000E+00
   1.020000      0.0000000E+00
   1.030000      0.0000000E+00
   1.040000      0.0000000E+00
   1.050000      0.0000000E+00
   1.060000      0.0000000E+00
   1.070000      0.0000000E+00
   1.080000      0.0000000E+00
   1.090000      0.0000000E+00
   1.100000      0.0000000E+00
   1.110000      0.0000000E+00
   1.120000      0.0000000E+00
   1.130000      0.0000000E+00
   1.140000      0.0000000E+00
   1.150000      0.0000000E+00
   1.160000      0.0000000E+00
   1.170000      0.0000000E+00
   1.180000      0.0000000E+00
   1.190000      0.0000000E+00
   1.200000      0.0000000E+00
   1.210000      0.0000000E+00
   1.220000      0.0000000E+00
   1.230000      0.0000000E+00
   1.240000      0.0000000E+00
   1.250000      0.0000000E+00
   1.260000      0.0000000E+00
   1.270000      0.0000000E+00
   1.280000      0.0000000E+00
   1.290000      0.0000000E+00
   1.300000      0.0000000E+00
   1.310000      0.0000000E+00
   1.320000      0.0000000E+00
   1.330000      0.0000000E+00
   1.340000      0.0000000E+00
   1.350000      0.0000000E+00
   1.360000      0.0000000E+00
   1.370000      0.0000000E+00
   1.380000      0.0000000E+00
   1.390000      0.0000000E+00
   1.400000      0.0000000E+00
   1.410000      0.0000000E+00
   1.420000      0.0000000E+00
   1.430000      0.0000000E+00
   1.440000      0.0000000E+00
   1.450000      0.0000000E+00
   1.460000      0.0000000E+00
   1.470000      0.0000000E+00
   1.480000      0.0000000E+00
   1.490000      0.0000000E+00
   1.500000      0.0000000E+00
   1.510000      0.0000000E+00
   1.520000      0.0000000E+00
   1.530000      0.0000000E+00
   1.540000      0.0000000E+00
   1.550000      0.0000000E+00
   1.560000      0.0000000E+00
   1.570000      0.0000000E+00
   1.580000      0.0000000E+00
   1.590000      0.0000000E+00
   1.600000      0.0000000E+00
   1.610000      0.0000000E+00
   1.620000      0.0000000E+00
   1.630000      0.0000000E+00
   1.640000      0.0000000E+00
   1.650000      0.0000000E+00
   1.660000      0.0000000E+00
   1.670000      0.0000000E+00
   1.680000      0.0000000E+00
   1.690000      0.0000000E+00
   1.700000      0.0000000E+00
   1.710000      0.0000000E+00
   1.720000      0.0000000E+00
   1.730000      0.0000000E+00
   1.740000      0.0000000E+00
   1.750000      0.0000000E+00
   1.760000      0.0000000E+00
   1.770000      0.0000000E+00
   1.780000      0.0000000E+00
   1.790000      0.0000000E+00
   1.800000      0.0000000E+00
   1.810000      0.0000000E+00
   1.820000      0.0000000E+00
   1.830000      0.0000000E+00
   1.840000      0.0000000E+00
   1.850000      0.0000000E+00
   1.860000      0.0000000E+00
   1.870000      0.0000000E+00
   1.880000      0.0000000E+00
   1.890000      0.0000000E+00
   1.900000      0.0000000E+00
   1.910000      0.0000000E+00
   1.920000      0.0000000E+00
   1.930000      0.0000000E+00
   1.940000      0.0000000E+00
   1.950000      0.0000000E+00
   1.960000      0.0000000E+00
   1.970000      0.0000000E+00
   1.980000      0.0000000E+00
   1.990000      0.0000000E+00
   2.000000      0.0000000E+00
   2.010000      0.0000000E+00
   2.020000      0.0000000E+00
   2.030000      0.0000000E+00
   2.040000      0.0000000E+00
   2.050000      0.0000000E+00
   2.060000      0.0000000E+00
   2.070000      0.0000000E+00
   2.080000      0.0000000E+00
   2.090000      0.0000000E+00
   2.100000      0.0000000E+00
   2.110000      0.0000000E+00
   2.120000      0.0000000E+00
   2.130000      0.0000000E+00
   2.140000      0.0000000E+00
   2.150000      0.0000000E+00
   2.160000      0.0000000E+00
   2.170000      0.0000000E+00
   2.180000      0.0000000E+00
   2.190000      0.0000000E+00
   2.200000      0.0000000E+00
   2.210000      0.0000000E+00
   2.220000      0.0000000E+00
   2.230000      0.0000000E+00
   2.240000      0.0000000E+00
   2.250000      0.0000000E+00
   2.260000      0.0000000E+00
   2.270000      0.0000000E+00
   2.280000      0.0000000E+00
   2.290000      0.0000000E+00
   2.300000      0.0000000E+00
   2.310000      0.0000000E+00
   2.320000      0.0000000E+00
   2.330000      0.0000000E+00
   2.340000      0.0000000E+00
   2.350000      0.0000000E+00
   2.360000      0.0000000E+00
   2.370000      0.0000000E+00
   2.380000      0.0000000E+00
   2.390000      0.0000000E+00
   2.400000      0.0000000E+00
   2.410000      0.0000000E+00
   2.420000      0.0000000E+00
   2.430000      0.0000000E+00
   2.440000      0.0000000E+00
   2.450000      0.0000000E+00
   2.460000      0.0000000E+00
   2.470000      0.0000000E+00
   2.480000      0.0000000E+00
   2.490000      0.0000000E+00
   2.500000      0.0000000E+00
   2.510000      0.0000000E+00
   2.520000      0.0000000E+00
   2.530000      0.0000000E+00
   2.540000      0.0000000E+00
   2.550000      0.0000000E+00
   2.560000      0.0000000E+00
   2.570000      0.0000000E+00
   2.580000      0.0000000E+00
   2.590000      0.0000000E+00
   2.600000      0.0000000E+00
   2.610000      0.0000000E+00
   2.620000      0.0000000E+00
   2.630000      0.0000000E+00
   2.640000      0.0000000E+00
   2.650000      0.0000000E+00
   2.660000      0.0000000E+00
   2.670000      0.0000000E+00
   2.680000      0.0000000E+00
   2.690000      0.0000000E+00
   2.700000      0.0000000E+00
   2.710000      0.0000000E+00
   2.720000      0.0000000E+00
   2.730000      0.0000000E+00
   2.740000      0.0000000E+00
   2.750000      0.0000000E+00
   2.760000      0.0000000E+00
   2.770000     -1.2789133E-38
   2.780000     -1.5375813E-38
   2.790000     -1.8920531E-38
   2.800000     -2.2658499E-38
   2.810000     -2.6399875E-38
   2.820000     -2.9973979E-38
   2.830000     -3.2331218E-38
   2.840000     -3.3624686E-38
   2.850000     -3.4944948E-38
   2.860000     -3.6580274E-38
   2.870000     -3.8617675E-38
   2.880000     -4.0830945E-38
   2.890000     -4.3203828E-38
   2.900000     -4.5715361E-38
   2.910000     -4.8296620E-38
   2.920000     -5.0849596E-38
   2.930000     -5.3352208E-38
   2.940000     -5.5602464E-38
   2.950000     -5.7561664E-38
   2.960000     -5.9366576E-38
   2.970000     -5.8963175E-38
   2.980000     -5.5915183E-38
   2.990000     -5.2643818E-38
   3.000000     -4.9448051E-38
   3.010000     -4.5511388E-38
   3.020000     -4.0614442E-38
   3.030000     -3.5081056E-38
   3.040000     -2.9269857E-38
   3.050000     -2.3215414E-38
   3.060000     -1.7511014E-38
   3.070000     -1.2064888E-38
   3.080000      0.0000000E+00
   3.090000      0.0000000E+00
   3.100000      0.0000000E+00
   3.110000      0.0000000E+00
   3.120000      0.0000000E+00
   3.130000      0.0000000E+00
   3.140000      1.2604674E-38
   3.150000      1.5673191E-38
   3.160000      1.9431327E-38
   3.170000      2.4885037E-38
   3.180000      3.2426108E-38
   3.190000      5.9279762E-38
   3.200000      1.0462942E-37
   3.210000      1.5054870E-37
   3.220000      1.9755331E-37
   3.230000      2.4667247E-37
   3.240000      2.9707229E-37
   3.250000      3.4714847E-37
   3.260000      4.0522027E-37
   3.270000      4.7123026E-37
   3.280000      5.3606872E-37
   3.290000      5.8353803E-37
   3.300000      6.1165884E-37
   3.310000      6.3665716E-37
   3.320000      6.6072249E-37
   3.330000      6.8114652E-37
   3.340000      7.0525042E-37
   3.350000      7.5095087E-37
   3.360000      8.5262191E-37
   3.370000      1.0007043E-36
   3.380000      1.1351709E-36
   3.390000      1.2491675E-36
   3.400000      1.3596321E-36
   3.410000      1.4849106E-36
   3.420000      1.5660634E-36
   3.430000      1.5570237E-36
   3.440000      1.5069864E-36
   3.450000      1.4360176E-36
   3.460000      1.3562956E-36
   3.470000      1.2017065E-36
   3.480000      9.6110806E-37
   3.490000      7.1032613E-37
   3.500000      4.5332620E-37
   3.510000      1.4619653E-37
   3.520000     -2.0739984E-37
   3.530000     -5.6311033E-37
   3.540000     -9.1906543E-37
   3.550000     -1.2702215E-36
   3.560000     -1.5391807E-36
   3.570000     -1.6795937E-36
   3.580000     -1.7762205E-36
   3.590000     -1.9202790E-36
   3.600000     -2.1081050E-36
   3.610000     -2.2964983E-36
   3.620000     -2.4452833E-36
   3.630000     -2.5726403E-36
   3.640000     -2.7134921E-36
   3.650000     -2.8650546E-36
   3.660000     -3.0791907E-36
   3.670000     -3.3589687E-36
   3.680000     -3.6682308E-36
   3.690000     -4.0958197E-36
   3.700000     -4.7262517E-36
   3.710000     -5.5139295E-36
   3.720000     -6.3154890E-36
   3.730000     -7.0846465E-36
   3.740000     -7.8762972E-36
   3.750000     -8.7077944E-36
   3.760000     -9.4174360E-36
   3.770000     -9.8818739E-36
   3.780000     -1.0188049E-35
   3.790000     -1.0455613E-35
   3.800000     -1.0406299E-35
   3.810000     -9.9202002E-36
   3.820000     -9.2918854E-36
   3.830000     -8.5634706E-36
   3.840000     -7.7316024E-36
   3.850000     -6.8035588E-36
   3.860000     -5.8378605E-36
   3.870000     -4.9109573E-36
   3.880000     -4.0060911E-36
   3.890000     -3.0716000E-36
   3.900000     -2.2086161E-36
   3.910000     -1.4059783E-36
   3.920000     -6.8831745E-37
   3.930000      1.7528765E-37
   3.940000      1.1346560E-36
   3.950000      1.9806441E-36
   3.960000      2.9397227E-36
   3.970000      4.0570077E-36
   3.980000      5.3762049E-36
   3.990000      6.8968716E-36
   4.000000      8.5686112E-36
   4.010000      1.0455802E-35
   4.020000      1.2497983E-35
   4.030000      1.4613761E-35
   4.040000      1.6903431E-35
   4.050000      1.9121885E-35
   4.060000      2.1144879E-35
   4.070000      2.3259103E-35
   4.080000      2.5436406E-35
   4.090000      2.7270619E-35
   4.100000      2.9086540E-35
   4.110000      3.1233092E-35
   4.120000      3.3408083E-35
   4.130000      3.5355926E-35
   4.140000      3.7191502E-35
   4.150000      3.9140056E-35
   4.160000      4.1027712E-35
   4.170000      4.2932391E-35
   4.180000      4.5060421E-35
   4.190000      4.7314586E-35
   4.200000      4.9531687E-35
   4.210000      5.1618546E-35
   4.220000      5.3147228E-35
   4.230000      5.3993469E-35
   4.240000      5.4513424E-35
   4.250000      5.4332807E-35
   4.260000      5.3267349E-35
   4.270000      5.1848284E-35
   4.280000      5.0115790E-35
   4.290000      4.7722479E-35
   4.300000      4.4340795E-35
   4.310000      4.0302487E-35
   4.320000      3.6085366E-35
   4.330000      3.1553121E-35
   4.340000      2.6854573E-35
   4.350000      2.2171501E-35
   4.360000      1.7332033E-35
   4.370000      1.2373536E-35
   4.380000      7.1640160E-36
   4.390000      1.5005300E-36
   4.400000     -4.4113138E-36
   4.410000     -1.0690359E-35
   4.420000     -1.7569003E-35
   4.430000     -2.4739335E-35
   4.440000     -3.2320392E-35
   4.450000     -4.0623116E-35
   4.460000     -4.9137587E-35
   4.470000     -5.7247361E-35
   4.480000     -6.5831489E-35
   4.490000     -7.5715818E-35
   4.500000     -8.6695613E-35
   4.510000     -9.9611173E-35
   4.520000     -1.1340823E-34
   4.530000     -1.2818922E-34
   4.540000     -1.4437662E-34
   4.550000     -1.5973148E-34
   4.560000     -1.7414730E-34
   4.570000     -1.8831119E-34
   4.580000     -2.0186372E-34
   4.590000     -2.1409839E-34
   4.600000     -2.2617760E-34
   4.610000     -2.3931242E-34
   4.620000     -2.5275275E-34
   4.630000     -2.6627208E-34
   4.640000     -2.8013463E-34
   4.650000     -2.9348946E-34
   4.660000     -3.0638838E-34
   4.670000     -3.1938852E-34
   4.680000     -3.3167285E-34
   4.690000     -3.4230786E-34
   4.700000     -3.5054810E-34
   4.710000     -3.5640392E-34
   4.720000     -3.5940873E-34
   4.730000     -3.5908480E-34
   4.740000     -3.5505690E-34
   4.750000     -3.4753047E-34
   4.760000     -3.3722587E-34
   4.770000     -3.2563306E-34
   4.780000     -3.1334643E-34
   4.790000     -2.9871881E-34
   4.800000     -2.8038745E-34
   4.810000     -2.5996285E-34
   4.820000     -2.3794848E-34
   4.830000     -2.1500448E-34
   4.840000     -1.9219331E-34
   4.850000     -1.6855935E-34
   4.860000     -1.4229037E-34
   4.870000     -1.1091485E-34
   4.880000     -7.6369354E-35
   4.890000     -3.8348623E-35
   4.900000      3.0775241E-36
   4.910000      4.8446329E-35
   4.920000      9.7966422E-35
   4.930000      1.5035593E-34
   4.940000      2.0534963E-34
   4.950000      2.6126689E-34
   4.960000      3.1478641E-34
   4.970000      3.6798982E-34
   4.980000      4.2813727E-34
   4.990000      4.9890910E-34
   5.000000      5.7750224E-34
   5.010000      6.5817352E-34
   5.020000      7.4144435E-34
   5.030000      8.2864610E-34
   5.040000      9.1768530E-34
   5.050000      1.0116213E-33
   5.060000      1.1120642E-33
   5.070000      1.2145356E-33
   5.080000      1.3184761E-33
   5.090000      1.4226183E-33
   5.100000      1.5260101E-33
   5.110000      1.6302808E-33
   5.120000      1.7351832E-33
   5.130000      1.8378671E-33
   5.140000      1.9388003E-33
   5.150000      2.0385157E-33
   5.160000      2.1317787E-33
   5.170000      2.2182519E-33
   5.180000      2.3011226E-33
   5.190000      2.3793462E-33
   5.200000      2.4514185E-33
   5.210000      2.5239778E-33
   5.220000      2.5987085E-33
   5.230000      2.6687478E-33
   5.240000      2.7331329E-33
   5.250000      2.7937166E-33
   5.260000      2.8504414E-33
   5.270000      2.8979319E-33
   5.280000      2.9338581E-33
   5.290000      2.9614699E-33
   5.300000      2.9783346E-33
   5.310000      2.9786026E-33
   5.320000      2.9629672E-33
   5.330000      2.9320247E-33
   5.340000      2.8810523E-33
   5.350000      2.8110068E-33
   5.360000      2.7225696E-33
   5.370000      2.6104951E-33
   5.380000      2.4733852E-33
   5.390000      2.3134912E-33
   5.400000      2.1272536E-33
   5.410000      1.9117406E-33
   5.420000      1.6719572E-33
   5.430000      1.4070016E-33
   5.440000      1.1115065E-33
   5.450000      7.8631058E-34
   5.460000      4.3225912E-34
   5.470000      4.7571490E-35
   5.480000     -3.6837332E-34
   5.490000     -8.1494709E-34
   5.500000     -1.2922297E-33
   5.510000     -1.8028990E-33
   5.520000     -2.3466124E-33
   5.530000     -2.9214655E-33
   5.540000     -3.5257752E-33
   5.550000     -4.1611942E-33
   5.560000     -4.8315701E-33
   5.570000     -5.5370030E-33
   5.580000     -6.2750181E-33
   5.590000     -7.0434439E-33
   5.600000     -7.8442626E-33
   5.610000     -8.6770982E-33
   5.620000     -9.5407427E-33
   5.630000     -1.0434633E-32
   5.640000     -1.1356003E-32
   5.650000     -1.2303577E-32
   5.660000     -1.3273092E-32
   5.670000     -1.4262637E-32
   5.680000     -1.5274535E-32
   5.690000     -1.6305054E-32
   5.700000     -1.7348483E-32
   5.710000     -1.8401011E-32
   5.720000     -1.9455863E-32
   5.730000     -2.0507491E-32
   5.740000     -2.1552851E-32
   5.750000     -2.2586176E-32
   5.760000     -2.3602758E-32
   5.770000     -2.4597438E-32
   5.780000     -2.5563070E-32
   5.790000     -2.6491899E-32
   5.800000     -2.7377860E-32
   5.810000     -2.8215723E-32
   5.820000     -2.8997959E-32
   5.830000     -2.9717129E-32
   5.840000     -3.0364638E-32
   5.850000     -3.0930010E-32
   5.860000     -3.1404395E-32
   5.870000     -3.1780836E-32
   5.880000     -3.2050468E-32
   5.890000     -3.2203652E-32
   5.900000     -3.2228435E-32
   5.910000     -3.2116007E-32
   5.920000     -3.1857801E-32
   5.930000     -3.1441588E-32
   5.940000     -3.0857103E-32
   5.950000     -3.0094577E-32
   5.960000     -2.9142295E-32
   5.970000     -2.7987859E-32
   5.980000     -2.6620704E-32
   5.990000     -2.5029143E-32
   6.000000     -2.3202000E-32
   6.010000     -2.1127204E-32
   6.020000     -1.8792782E-32
   6.030000     -1.6190248E-32
   6.040000     -1.3308929E-32
   6.050000     -1.0135511E-32
   6.060000     -6.6602048E-33
   6.070000     -2.8749552E-33
   6.080000      1.2282618E-33
   6.090000      5.6581425E-33
   6.100000      1.0422770E-32
   6.110000      1.5525951E-32
   6.120000      2.0971951E-32
   6.130000      2.6766139E-32
   6.140000      3.2911459E-32
   6.150000      3.9409832E-32
   6.160000      4.6261292E-32
   6.170000      5.3464533E-32
   6.180000      6.1017761E-32
   6.190000      6.8916783E-32
   6.200000      7.7155564E-32
   6.210000      8.5726470E-32
   6.220000      9.4619966E-32
   6.230000      1.0382450E-31
   6.240000      1.1332638E-31
   6.250000      1.2310941E-31
   6.260000      1.3315409E-31
   6.270000      1.4344049E-31
   6.280000      1.5394667E-31
   6.290000      1.6464625E-31
   6.300000      1.7551036E-31
   6.310000      1.8650718E-31
   6.320000      1.9760168E-31
   6.330000      2.0875576E-31
   6.340000      2.1992841E-31
   6.350000      2.3107696E-31
   6.360000      2.4215402E-31
   6.370000      2.5310704E-31
   6.380000      2.6388139E-31
   6.390000      2.7441890E-31
   6.400000      2.8465781E-31
   6.410000      2.9453288E-31
   6.420000      3.0397529E-31
   6.430000      3.1291260E-31
   6.440000      3.2126909E-31
   6.450000      3.2896564E-31
   6.460000      3.3591855E-31
   6.470000      3.4204300E-31
   6.480000      3.4725187E-31
   6.490000      3.5145304E-31
   6.500000      3.5455028E-31
   6.510000      3.5644567E-31
   6.520000      3.5704061E-31
   6.530000      3.5623321E-31
   6.540000      3.5391963E-31
   6.550000      3.4999432E-31
   6.560000      3.4435021E-31
   6.570000      3.3687761E-31
   6.580000      3.2746919E-31
   6.590000      3.1601715E-31
   6.600000      3.0241050E-31
   6.610000      2.8654022E-31
   6.620000      2.6829810E-31
   6.630000      2.4757719E-31
   6.640000      2.2427250E-31
   6.650000      1.9828185E-31
   6.660000      1.6950520E-31
   6.670000      1.3784605E-31
   6.680000      1.0321331E-31
   6.690000      6.5520415E-32
   6.700000      2.4686313E-32
   6.710000     -1.9363470E-32
   6.720000     -6.6696221E-32
   6.730000     -1.1737111E-31
   6.740000     -1.7143852E-31
   6.750000     -2.2893876E-31
   6.760000     -2.8990218E-31
   6.770000     -3.5434746E-31
   6.780000     -4.2228031E-31
   6.790000     -4.9369347E-31
   6.800000     -5.6856536E-31
   6.810000     -6.4685898E-31
   6.820000     -7.2852081E-31
   6.830000     -8.1348055E-31
   6.840000     -9.0164978E-31
   6.850000     -9.9292052E-31
   6.860000     -1.0871651E-30
   6.870000     -1.1842347E-30
   6.880000     -1.2839585E-30
   6.890000     -1.3861431E-30
   6.900000     -1.4905715E-30
   6.910000     -1.5970020E-30
   6.920000     -1.7051680E-30
   6.930000     -1.8147769E-30
   6.940000     -1.9255094E-30
   6.950000     -2.0370191E-30
   6.960000     -2.1489312E-30
   6.970000     -2.2608430E-30
   6.980000     -2.3723231E-30
   6.990000     -2.4829110E-30
   7.000000     -2.5921161E-30
   7.010000     -2.6994186E-30
   7.020000     -2.8042689E-30
   7.030000     -2.9060876E-30
   7.040000     -3.0042662E-30
   7.050000     -3.0981666E-30
   7.060000     -3.1871214E-30