  -2.600000      0.0000000E+00
  -2.590000      0.0000000E+00
  -2.580000      0.0000000E+00
  -2.570000      0.0000000E+00
  -2.560000      0.0000000E+00
  -2.550000      0.0000000E+00
  -2.540000      0.0000000E+00
  -2.530000      0.0000000E+00
  -2.520000      0.0000000E+00
  -2.510000      0.0000000E+00
  -2.500000      0.0000000E+00
  -2.490000      0.0000000E+00
  -2.480000      0.0000000E+00
  -2.470000      0.0000000E+00
  -2.460000      0.0000000E+00
  -2.450000      0.0000000E+00
  -2.440000      0.0000000E+00
  -2.430000      0.0000000E+00
  -2.420000      0.0000000E+00
  -2.410000      0.0000000E+00
  -2.400000      0.0000000E+00
  -2.390000      0.0000000E+00
  -2.380000      0.0000000E+00
  -2.370000      0.0000000E+00
  -2.360000      0.0000000E+00
  -2.350000      0.0000000E+00
  -2.340000      0.0000000E+00
  -2.330000      0.0000000E+00
  -2.320000      0.0000000E+00
  -2.310000      0.0000000E+00
  -2.300000      0.0000000E+00
  -2.290000      0.0000000E+00
  -2.280000      0.0000000E+00
  -2.270000      0.0000000E+00
  -2.260000      0.0000000E+00
  -2.250000      0.0000000E+00
  -2.240000      0.0000000E+00
  -2.230000      0.0000000E+00
  -2.220000      0.0000000E+00
  -2.210000      0.0000000E+00
  -2.200000      0.0000000E+00
  -2.190000      0.0000000E+00
  -2.180000      0.0000000E+00
  -2.170000      0.0000000E+00
  -2.160000      0.0000000E+00
  -2.150000      0.0000000E+00
  -2.140000      0.0000000E+00
  -2.130000      0.0000000E+00
  -2.120000      0.0000000E+00
  -2.110000      0.0000000E+00
  -2.100000      0.0000000E+00
  -2.090000      0.0000000E+00
  -2.080000      0.0000000E+00
  -2.070000      0.0000000E+00
  -2.060000      0.0000000E+00
  -2.050000      0.0000000E+00
  -2.040000      0.0000000E+00
  -2.030000      0.0000000E+00
  -2.020000      0.0000000E+00
  -2.010000      0.0000000E+00
  -2.000000      0.0000000E+00
  -1.990000      0.0000000E+00
  -1.980000      0.0000000E+00
  -1.970000      0.0000000E+00
  -1.960000      0.0000000E+00
  -1.950000      0.0000000E+00
  -1.940000      0.0000000E+00
  -1.930000      0.0000000E+00
  -1.920000      0.0000000E+00
  -1.910000      0.0000000E+00
  -1.900000      0.0000000E+00
  -1.890000      0.0000000E+00
  -1.880000      0.0000000E+00
  -1.870000      0.0000000E+00
  -1.860000      0.0000000E+00
  -1.850000      0.0000000E+00
  -1.840000      0.0000000E+00
  -1.830000      0.0000000E+00
  -1.820000      0.0000000E+00
  -1.810000      0.0000000E+00
  -1.800000      0.0000000E+00
  -1.790000      0.0000000E+00
  -1.780000      0.0000000E+00
  -1.770000      0.0000000E+00
  -1.760000      0.0000000E+00
  -1.750000      0.0000000E+00
  -1.740000      0.0000000E+00
  -1.730000      0.0000000E+00
  -1.720000      0.0000000E+00
  -1.710000      0.0000000E+00
  -1.700000      0.0000000E+00
  -1.690000      0.0000000E+00
  -1.680000      0.0000000E+00
  -1.670000      0.0000000E+00
  -1.660000      0.0000000E+00
  -1.650000      0.0000000E+00
  -1.640000      0.0000000E+00
  -1.630000      0.0000000E+00
  -1.620000      0.0000000E+00
  -1.610000      0.0000000E+00
  -1.600000      0.0000000E+00
  -1.590000      0.0000000E+00
  -1.580000      0.0000000E+00
  -1.570000      0.0000000E+00
  -1.560000      0.0000000E+00
  -1.550000      0.0000000E+00
  -1.540000      0.0000000E+00
  -1.530000      0.0000000E+00
  -1.520000      0.0000000E+00
  -1.510000      0.0000000E+00
  -1.500000      0.0000000E+00
  -1.490000      0.0000000E+00
  -1.480000      0.0000000E+00
  -1.470000      0.0000000E+00
  -1.460000      0.0000000E+00
  -1.450000      0.0000000E+00
  -1.440000      0.0000000E+00
  -1.430000      0.0000000E+00
  -1.420000      0.0000000E+00
  -1.410000      0.0000000E+00
  -1.400000      0.0000000E+00
  -1.390000      0.0000000E+00
  -1.380000      0.0000000E+00
  -1.370000      0.0000000E+00
  -1.360000      0.0000000E+00
  -1.350000      0.0000000E+00
  -1.340000      0.0000000E+00
  -1.330000      0.0000000E+00
  -1.320000      0.0000000E+00
  -1.310000      0.0000000E+00
  -1.300000      0.0000000E+00
  -1.290000      0.0000000E+00
  -1.280000      0.0000000E+00
  -1.270000      0.0000000E+00
  -1.260000      0.0000000E+00
  -1.250000      0.0000000E+00
  -1.240000      0.0000000E+00
  -1.230000      0.0000000E+00
  -1.220000      0.0000000E+00
  -1.210000      0.0000000E+00
  -1.200000      0.0000000E+00
  -1.190000      0.0000000E+00
  -1.180000      0.0000000E+00
  -1.170000      0.0000000E+00
  -1.160000      0.0000000E+00
  -1.150000      0.0000000E+00
  -1.140000      0.0000000E+00
  -1.130000      0.0000000E+00
  -1.120000      0.0000000E+00
  -1.110000      0.0000000E+00
  -1.100000      0.0000000E+00
  -1.090000      0.0000000E+00
  -1.080000      0.0000000E+00
  -1.070000      0.0000000E+00
  -1.060000      0.0000000E+00
  -1.050000      0.0000000E+00
  -1.040000      0.0000000E+00
  -1.030000      0.0000000E+00
  -1.020000      0.0000000E+00
  -1.010000      0.0000000E+00
  -1.000000      0.0000000E+00
 -0.9900000      0.0000000E+00
 -0.9800000      0.0000000E+00
 -0.9700000      0.0000000E+00
 -0.9600000      0.0000000E+00
 -0.9500000      0.0000000E+00
 -0.9400000      0.0000000E+00
 -0.9300000      0.0000000E+00
 -0.9200000      0.0000000E+00
 -0.9100000      0.0000000E+00
 -0.9000000      0.0000000E+00
 -0.8900000      0.0000000E+00
 -0.8800000      0.0000000E+00
 -0.8700000      0.0000000E+00
 -0.8600000      0.0000000E+00
 -0.8500000      0.0000000E+00
 -0.8400000      0.0000000E+00
 -0.8300000      0.0000000E+00
 -0.8200000      0.0000000E+00
 -0.8100000      0.0000000E+00
 -0.8000000      0.0000000E+00
 -0.7900000      0.0000000E+00
 -0.7800000      0.0000000E+00
 -0.7700000      0.0000000E+00
 -0.7600000      0.0000000E+00
 -0.7500000      0.0000000E+00
 -0.7400000      0.0000000E+00
 -0.7300000      0.0000000E+00
 -0.7200000      0.0000000E+00
 -0.7100000      0.0000000E+00
 -0.7000000      0.0000000E+00
 -0.6900000      0.0000000E+00
 -0.6800000      0.0000000E+00
 -0.6700000      0.0000000E+00
 -0.6600000      0.0000000E+00
 -0.6500000      0.0000000E+00
 -0.6400000      0.0000000E+00
 -0.6300000      0.0000000E+00
 -0.6200000      0.0000000E+00
 -0.6100000      0.0000000E+00
 -0.6000000      0.0000000E+00
 -0.5900000      0.0000000E+00
 -0.5800000      0.0000000E+00
 -0.5700000      0.0000000E+00
 -0.5600000      0.0000000E+00
 -0.5500000      0.0000000E+00
 -0.5400000      0.0000000E+00
 -0.5300000      0.0000000E+00
 -0.5200000      0.0000000E+00
 -0.5100000      0.0000000E+00
 -0.5000000      0.0000000E+00
 -0.4900000      0.0000000E+00
 -0.4800000      0.0000000E+00
 -0.4700000      0.0000000E+00
 -0.4600000      0.0000000E+00
 -0.4500000      0.0000000E+00
 -0.4400000      0.0000000E+00
 -0.4300000      0.0000000E+00
 -0.4200000      0.0000000E+00
 -0.4100000      0.0000000E+00
 -0.4000000      0.0000000E+00
 -0.3900000      0.0000000E+00
 -0.3800000      0.0000000E+00
 -0.3700000      0.0000000E+00
 -0.3600000      0.0000000E+00
 -0.3500000      0.0000000E+00
 -0.3400000      0.0000000E+00
 -0.3300000      0.0000000E+00
 -0.3200000      0.0000000E+00
 -0.3100000      0.0000000E+00
 -0.3000000      0.0000000E+00
 -0.2900000      0.0000000E+00
 -0.2800000      0.0000000E+00
 -0.2700000      0.0000000E+00
 -0.2600000      0.0000000E+00
 -0.2500000      0.0000000E+00
 -0.2400000      0.0000000E+00
 -0.2300000      0.0000000E+00
 -0.2200000      0.0000000E+00
 -0.2100000      0.0000000E+00
 -0.2000000      0.0000000E+00
 -0.1900000      0.0000000E+00
 -0.1800000      0.0000000E+00
 -0.1700000      0.0000000E+00
 -0.1600000      0.0000000E+00
 -0.1500000      0.0000000E+00
 -0.1400000      0.0000000E+00
 -0.1300000      0.0000000E+00
 -0.1200000      0.0000000E+00
 -0.1100000      0.0000000E+00
 -0.1000000      0.0000000E+00
 -9.0000004E-02  0.0000000E+00
 -7.9999998E-02  0.0000000E+00
 -7.0000000E-02  0.0000000E+00
 -5.9999999E-02  0.0000000E+00
 -5.0000001E-02  0.0000000E+00
 -3.9999999E-02  0.0000000E+00
 -2.9999999E-02  0.0000000E+00
 -2.0000000E-02  0.0000000E+00
 -9.9999998E-03  0.0000000E+00
 -3.4694470E-17  0.0000000E+00
  9.9999998E-03  0.0000000E+00
  2.0000000E-02  0.0000000E+00
  2.9999999E-02  0.0000000E+00
  3.9999999E-02  0.0000000E+00
  5.0000001E-02  0.0000000E+00
  5.9999999E-02  0.0000000E+00
  7.0000000E-02  0.0000000E+00
  7.9999998E-02  0.0000000E+00
  9.0000004E-02  0.0000000E+00
  0.1000000      0.0000000E+00
  0.1100000      0.0000000E+00
  0.1200000      0.0000000E+00
  0.1300000      0.0000000E+00
  0.1400000      0.0000000E+00
  0.1500000      0.0000000E+00
  0.1600000      0.0000000E+00
  0.1700000      0.0000000E+00
  0.1800000      0.0000000E+00
  0.1900000      0.0000000E+00
  0.2000000      0.0000000E+00
  0.2100000      0.0000000E+00
  0.2200000      0.0000000E+00
  0.2300000      0.0000000E+00
  0.2400000      0.0000000E+00
  0.2500000      0.0000000E+00
  0.2600000      0.0000000E+00
  0.2700000      0.0000000E+00
  0.2800000      0.0000000E+00
  0.2900000      0.0000000E+00
  0.3000000      0.0000000E+00
  0.3100000      0.0000000E+00
  0.3200000      0.0000000E+00
  0.3300000      0.0000000E+00
  0.3400000      0.0000000E+00
  0.3500000      0.0000000E+00
  0.3600000      0.0000000E+00
  0.3700000      0.0000000E+00
  0.3800000      0.0000000E+00
  0.3900000      0.0000000E+00
  0.4000000      0.0000000E+00
  0.4100000      0.0000000E+00
  0.4200000      0.0000000E+00
  0.4300000      0.0000000E+00
  0.4400000      0.0000000E+00
  0.4500000      0.0000000E+00
  0.4600000      0.0000000E+00
  0.4700000      0.0000000E+00
  0.4800000      0.0000000E+00
  0.4900000      0.0000000E+00
  0.5000000      0.0000000E+00
  0.5100000      0.0000000E+00
  0.5200000      0.0000000E+00
  0.5300000      0.0000000E+00
  0.5400000      0.0000000E+00
  0.5500000      0.0000000E+00
  0.5600000      0.0000000E+00
  0.5700000      0.0000000E+00
  0.5800000      0.0000000E+00
  0.5900000      0.0000000E+00
  0.6000000      0.0000000E+00
  0.6100000      0.0000000E+00
  0.6200000      0.0000000E+00
  0.6300000      0.0000000E+00
  0.6400000      0.0000000E+00
  0.6500000      0.0000000E+00
  0.6600000      0.0000000E+00
  0.6700000      0.0000000E+00
  0.6800000      0.0000000E+00
  0.6900000      0.0000000E+00
  0.7000000      0.0000000E+00
  0.7100000      0.0000000E+00
  0.7200000      0.0000000E+00
  0.7300000      0.0000000E+00
  0.7400000      0.0000000E+00
  0.7500000      0.0000000E+00
  0.7600000      0.0000000E+00
  0.7700000      0.0000000E+00
  0.7800000      0.0000000E+00
  0.7900000      0.0000000E+00
  0.8000000      0.0000000E+00
  0.8100000      0.0000000E+00
  0.8200000      0.0000000E+00
  0.8300000      0.0000000E+00
  0.8400000      0.0000000E+00
  0.8500000      0.0000000E+00
  0.8600000      0.0000000E+00
  0.8700000      0.0000000E+00
  0.8800000      0.0000000E+00
  0.8900000      0.0000000E+00
  0.9000000      0.0000000E+00
  0.9100000      0.0000000E+00
  0.9200000      0.0000000E+00
  0.9300000      0.0000000E+00
  0.9400000      0.0000000E+00
  0.9500000      0.0000000E+00
  0.9600000      0.0000000E+00
  0.9700000      0.0000000E+00
  0.9800000      0.0000000E+00
  0.9900000      0.0000000E+00
   1.000000      0.0000000E+00
   1.010000      0.0000000E+00
   1.020000      0.0000000E+00
   1.030000      0.0000000E+00
   1.040000      0.0000000E+00
   1.050000      0.0000000E+00
   1.060000      0.0000000E+00
   1.070000      0.0000000E+00
   1.080000      0.0000000E+00
   1.090000      0.0000000E+00
   1.100000      0.0000000E+00
   1.110000      0.0000000E+00
   1.120000      0.0000000E+00
   1.130000      0.0000000E+00
   1.140000      0.0000000E+00
   1.150000      0.0000000E+00
   1.160000      0.0000000E+00
   1.170000      0.0000000E+00
   1.180000      0.0000000E+00
   1.190000      0.0000000E+00
   1.200000      0.0000000E+00
   1.210000      0.0000000E+00
   1.220000      0.0000000E+00
   1.230000      0.0000000E+00
   1.240000      0.0000000E+00
   1.250000      0.0000000E+00
   1.260000      0.0000000E+00
   1.270000      0.0000000E+00
   1.280000      0.0000000E+00
   1.290000      0.0000000E+00
   1.300000      0.0000000E+00
   1.310000      0.0000000E+00
   1.320000      0.0000000E+00
   1.330000      0.0000000E+00
   1.340000      0.0000000E+00
   1.350000      0.0000000E+00
   1.360000      0.0000000E+00
   1.370000      0.0000000E+00
   1.380000      0.0000000E+00
   1.390000      0.0000000E+00
   1.400000      0.0000000E+00
   1.410000      0.0000000E+00
   1.420000      0.0000000E+00
   1.430000      0.0000000E+00
   1.440000      0.0000000E+00
   1.450000      0.0000000E+00
   1.460000      0.0000000E+00
   1.470000      0.0000000E+00
   1.480000      0.0000000E+00
   1.490000      0.0000000E+00
   1.500000      0.0000000E+00
   1.510000      0.0000000E+00
   1.520000      0.0000000E+00
   1.530000      0.0000000E+00
   1.540000      0.0000000E+00
   1.550000      0.0000000E+00
   1.560000      0.0000000E+00
   1.570000      0.0000000E+00
   1.580000      0.0000000E+00
   1.590000      0.0000000E+00
   1.600000      0.0000000E+00
   1.610000      0.0000000E+00
   1.620000      0.0000000E+00
   1.630000      0.0000000E+00
   1.640000      0.0000000E+00
   1.650000      0.0000000E+00
   1.660000      0.0000000E+00
   1.670000      0.0000000E+00
   1.680000      0.0000000E+00
   1.690000      0.0000000E+00
   1.700000      0.0000000E+00
   1.710000      0.0000000E+00
   1.720000      0.0000000E+00
   1.730000      0.0000000E+00
   1.740000      0.0000000E+00
   1.750000      0.0000000E+00
   1.760000      0.0000000E+00
   1.770000      0.0000000E+00
   1.780000      0.0000000E+00
   1.790000      0.0000000E+00
   1.800000      0.0000000E+00
   1.810000      0.0000000E+00
   1.820000      0.0000000E+00
   1.830000      0.0000000E+00
   1.840000      0.0000000E+00
   1.850000      0.0000000E+00
   1.860000      0.0000000E+00
   1.870000      0.0000000E+00
   1.880000      0.0000000E+00
   1.890000      0.0000000E+00
   1.900000      0.0000000E+00
   1.910000      0.0000000E+00
   1.920000      0.0000000E+00
   1.930000      0.0000000E+00
   1.940000      0.0000000E+00
   1.950000      0.0000000E+00
   1.960000      0.0000000E+00
   1.970000      0.0000000E+00
   1.980000      0.0000000E+00
   1.990000      0.0000000E+00
   2.000000      0.0000000E+00
   2.010000      0.0000000E+00
   2.020000      0.0000000E+00
   2.030000      0.0000000E+00
   2.040000      0.0000000E+00
   2.050000      0.0000000E+00
   2.060000      0.0000000E+00
   2.070000      0.0000000E+00
   2.080000      0.0000000E+00
   2.090000      0.0000000E+00
   2.100000      0.0000000E+00
   2.110000      0.0000000E+00
   2.120000      0.0000000E+00
   2.130000      0.0000000E+00
   2.140000      0.0000000E+00
   2.150000      0.0000000E+00
   2.160000      0.0000000E+00
   2.170000      0.0000000E+00
   2.180000      0.0000000E+00
   2.190000      0.0000000E+00
   2.200000      0.0000000E+00
   2.210000      0.0000000E+00
   2.220000      0.0000000E+00
   2.230000      0.0000000E+00
   2.240000      0.0000000E+00
   2.250000      0.0000000E+00
   2.260000      0.0000000E+00
   2.270000      0.0000000E+00
   2.280000      0.0000000E+00
   2.290000      0.0000000E+00
   2.300000      0.0000000E+00
   2.310000      0.0000000E+00
   2.320000      0.0000000E+00
   2.330000      0.0000000E+00
   2.340000      0.0000000E+00
   2.350000      0.0000000E+00
   2.360000      0.0000000E+00
   2.370000      0.0000000E+00
   2.380000      0.0000000E+00
   2.390000      0.0000000E+00
   2.400000      0.0000000E+00
   2.410000      0.0000000E+00
   2.420000      0.0000000E+00
   2.430000      0.0000000E+00
   2.440000      0.0000000E+00
   2.450000      0.0000000E+00
   2.460000      0.0000000E+00
   2.470000      0.0000000E+00
   2.480000      0.0000000E+00
   2.490000      0.0000000E+00
   2.500000      0.0000000E+00
   2.510000      0.0000000E+00
   2.520000      0.0000000E+00
   2.530000      0.0000000E+00
   2.540000      0.0000000E+00
   2.550000      0.0000000E+00
   2.560000      0.0000000E+00
   2.570000      0.0000000E+00
   2.580000      0.0000000E+00
   2.590000      0.0000000E+00
   2.600000      0.0000000E+00
   2.610000      0.0000000E+00
   2.620000      0.0000000E+00
   2.630000      0.0000000E+00
   2.640000      0.0000000E+00
   2.650000      0.0000000E+00
   2.660000      0.0000000E+00
   2.670000      0.0000000E+00
   2.680000      0.0000000E+00
   2.690000      0.0000000E+00
   2.700000      0.0000000E+00
   2.710000      0.0000000E+00
   2.720000      0.0000000E+00
   2.730000     -1.2533722E-38
   2.740000     -1.4235694E-38
   2.750000     -1.5642829E-38
   2.760000     -1.6719500E-38
   2.770000     -1.7727502E-38
   2.780000     -1.8677036E-38
   2.790000     -1.9652244E-38
   2.800000     -2.0755687E-38
   2.810000     -2.2002086E-38
   2.820000     -2.3241742E-38
   2.830000     -2.4397526E-38
   2.840000     -2.5452255E-38
   2.850000     -2.6352401E-38
   2.860000     -2.7086822E-38
   2.870000     -2.7650794E-38
   2.880000     -2.8076750E-38
   2.890000     -2.8352119E-38
   2.900000     -2.8196995E-38
   2.910000     -2.7554373E-38
   2.920000     -2.6559847E-38
   2.930000     -2.5041523E-38
   2.940000     -2.2960151E-38
   2.950000     -2.0444102E-38
   2.960000     -1.7303947E-38
   2.970000     -1.3531420E-38
   2.980000      0.0000000E+00
   2.990000      0.0000000E+00
   3.000000      0.0000000E+00
   3.010000      0.0000000E+00
   3.020000      0.0000000E+00
   3.030000      1.4590147E-38
   3.040000      2.0491471E-38
   3.050000      2.6996382E-38
   3.060000      3.3973809E-38
   3.070000      4.0364072E-38
   3.080000      4.6682540E-38
   3.090000      5.2997029E-38
   3.100000      5.8652603E-38
   3.110000      6.3990989E-38
   3.120000      6.8835558E-38
   3.130000      7.4311272E-38
   3.140000      8.0225049E-38
   3.150000      8.5414040E-38
   3.160000      8.8999638E-38
   3.170000      9.0720735E-38
   3.180000      9.1506763E-38
   3.190000      9.1706616E-38
   3.200000      9.4588319E-38
   3.210000      1.0027712E-37
   3.220000      1.0540163E-37
   3.230000      1.0899798E-37
   3.240000      1.1038827E-37
   3.250000      1.0650670E-37
   3.260000      9.8573589E-38
   3.270000      8.9831107E-38
   3.280000      6.1523600E-38
   3.290000      0.0000000E+00
   3.300000     -4.6235019E-38
   3.310000     -1.0910476E-37
   3.320000     -1.7725283E-37
   3.330000     -2.4818482E-37
   3.340000     -3.1987214E-37
   3.350000     -3.9393589E-37
   3.360000     -4.7190867E-37
   3.370000     -5.3783135E-37
   3.380000     -5.7993788E-37
   3.390000     -6.0983505E-37
   3.400000     -6.3599570E-37
   3.410000     -6.5972786E-37
   3.420000     -6.7983154E-37
   3.430000     -6.8092177E-37
   3.440000     -6.5948334E-37
   3.450000     -6.2650054E-37
   3.460000     -5.8579217E-37
   3.470000     -5.4690356E-37
   3.480000     -4.9833084E-37
   3.490000     -4.3514438E-37
   3.500000     -3.7073053E-37
   3.510000     -3.0529303E-37
   3.520000     -2.1410605E-37
   3.530000     -1.0683369E-37
   3.540000     -1.2114435E-38
   3.550000      7.8357667E-38
   3.560000      1.6496591E-37
   3.570000      2.3460895E-37
   3.580000      3.0715657E-37
   3.590000      3.7535317E-37
   3.600000      4.1696095E-37
   3.610000      4.4851044E-37
   3.620000      4.7451495E-37
   3.630000      5.0483676E-37
   3.640000      5.3765665E-37
   3.650000      5.6803779E-37
   3.660000      6.0204419E-37
   3.670000      6.4341186E-37
   3.680000      6.9364050E-37
   3.690000      7.5252831E-37
   3.700000      8.5223502E-37
   3.710000      1.0022053E-36
   3.720000      1.1828449E-36
   3.730000      1.3952628E-36
   3.740000      1.6323089E-36
   3.750000      1.8885833E-36
   3.760000      2.1737301E-36
   3.770000      2.4869280E-36
   3.780000      2.7813860E-36
   3.790000      3.0541691E-36
   3.800000      3.3298955E-36
   3.810000      3.5912809E-36
   3.820000      3.8096919E-36
   3.830000      3.9765982E-36
   3.840000      4.1089414E-36
   3.850000      4.1755204E-36
   3.860000      4.1623413E-36
   3.870000      4.0739022E-36
   3.880000      3.8220904E-36
   3.890000      3.3521624E-36
   3.900000      2.7561344E-36
   3.910000      2.1303469E-36
   3.920000      1.4677858E-36
   3.930000      8.2063823E-37
   3.940000      2.0041355E-37
   3.950000     -3.8564438E-37
   3.960000     -8.8748702E-37
   3.970000     -1.3499349E-36
   3.980000     -1.7914596E-36
   3.990000     -2.2021266E-36
   4.000000     -2.5917085E-36
   4.010000     -3.0347732E-36
   4.020000     -3.5568300E-36
   4.030000     -4.1492612E-36
   4.040000     -4.8023274E-36
   4.050000     -5.5025584E-36
   4.060000     -6.2244657E-36
   4.070000     -6.7987906E-36
   4.080000     -7.4159186E-36
   4.090000     -8.1572471E-36
   4.100000     -8.9346123E-36
   4.110000     -9.7829434E-36
   4.120000     -1.0415168E-35
   4.130000     -1.1000045E-35
   4.140000     -1.1687499E-35
   4.150000     -1.2306681E-35
   4.160000     -1.2835064E-35
   4.170000     -1.3349773E-35
   4.180000     -1.3968602E-35
   4.190000     -1.4636773E-35
   4.200000     -1.5291253E-35
   4.210000     -1.5770057E-35
   4.220000     -1.6097069E-35
   4.230000     -1.6681221E-35
   4.240000     -1.7445925E-35
   4.250000     -1.7978609E-35
   4.260000     -1.8245792E-35
   4.270000     -1.8293233E-35
   4.280000     -1.8111165E-35
   4.290000     -1.7405549E-35
   4.300000     -1.6023529E-35
   4.310000     -1.4391731E-35
   4.320000     -1.2576560E-35
   4.330000     -1.0252105E-35
   4.340000     -7.4502343E-36
   4.350000     -4.2660110E-36
   4.360000     -6.9991365E-37
   4.370000      2.7727095E-36
   4.380000      6.0394459E-36
   4.390000      9.1294607E-36
   4.400000      1.2004663E-35
   4.410000      1.4915063E-35
   4.420000      1.7744585E-35
   4.430000      2.0455316E-35
   4.440000      2.3237997E-35
   4.450000      2.5613264E-35
   4.460000      2.7655112E-35
   4.470000      2.9934658E-35
   4.480000      3.2338627E-35
   4.490000      3.4885174E-35
   4.500000      3.7320261E-35
   4.510000      3.9700293E-35
   4.520000      4.2352289E-35
   4.530000      4.5217700E-35
   4.540000      4.8089405E-35
   4.550000      5.1073043E-35
   4.560000      5.4447549E-35
   4.570000      5.8177907E-35
   4.580000      6.2147669E-35
   4.590000      6.5557727E-35
   4.600000      6.9716819E-35
   4.610000      7.3732493E-35
   4.620000      7.5404961E-35
   4.630000      7.5868862E-35
   4.640000      7.5917317E-35
   4.650000      7.6025671E-35
   4.660000      7.4823791E-35
   4.670000      7.2088196E-35
   4.680000      6.8832277E-35
   4.690000      6.7072629E-35
   4.700000      6.6032689E-35
   4.710000      6.3767199E-35
   4.720000      6.1565351E-35
   4.730000      6.0418292E-35
   4.740000      5.9984002E-35
   4.750000      5.8933909E-35
   4.760000      5.7185435E-35
   4.770000      5.5240652E-35
   4.780000      5.3070798E-35
   4.790000      5.0266871E-35
   4.800000      4.6612248E-35
   4.810000      4.1455929E-35
   4.820000      3.4691705E-35
   4.830000      2.6190864E-35
   4.840000      1.6364773E-35
   4.850000      6.1109879E-36
   4.860000     -5.2673232E-36
   4.870000     -1.8095615E-35
   4.880000     -3.1873323E-35
   4.890000     -4.6242432E-35
   4.900000     -6.1705825E-35
   4.910000     -7.9341369E-35
   4.920000     -9.9519315E-35
   4.930000     -1.2179323E-34
   4.940000     -1.4332497E-34
   4.950000     -1.6237502E-34
   4.960000     -1.8020212E-34
   4.970000     -1.9791399E-34
   4.980000     -2.2090094E-34
   4.990000     -2.4676202E-34
   5.000000     -2.7392641E-34
   5.010000     -3.0631946E-34
   5.020000     -3.3911120E-34
   5.030000     -3.6768949E-34
   5.040000     -3.9411874E-34
   5.050000     -4.2043158E-34
   5.060000     -4.4579604E-34
   5.070000     -4.7122143E-34
   5.080000     -4.9559145E-34
   5.090000     -5.1811447E-34
   5.100000     -5.4197356E-34
   5.110000     -5.6710586E-34
   5.120000     -5.9156804E-34
   5.130000     -6.1270705E-34
   5.140000     -6.3002516E-34
   5.150000     -6.4690044E-34
   5.160000     -6.6280910E-34
   5.170000     -6.7747243E-34
   5.180000     -6.9073719E-34
   5.190000     -7.0323247E-34
   5.200000     -7.1590398E-34
   5.210000     -7.2739421E-34
   5.220000     -7.3951543E-34
   5.230000     -7.5049813E-34
   5.240000     -7.5843341E-34
   5.250000     -7.6368736E-34
   5.260000     -7.6459530E-34
   5.270000     -7.5717738E-34
   5.280000     -7.4206607E-34
   5.290000     -7.2409529E-34
   5.300000     -7.0051827E-34
   5.310000     -6.7144582E-34
   5.320000     -6.3489947E-34
   5.330000     -5.9127793E-34
   5.340000     -5.4146502E-34
   5.350000     -4.8242674E-34
   5.360000     -4.1141485E-34
   5.370000     -3.2640868E-34
   5.380000     -2.3283937E-34
   5.390000     -1.3582989E-34
   5.400000     -3.5661172E-35
   5.410000      7.1220235E-35
   5.420000      1.8845862E-34
   5.430000      3.1349971E-34
   5.440000      4.4446920E-34
   5.450000      5.8422597E-34
   5.460000      7.3260096E-34
   5.470000      8.9039170E-34
   5.480000      1.0572213E-33
   5.490000      1.2315295E-33
   5.500000      1.4140571E-33
   5.510000      1.6044023E-33
   5.520000      1.8019709E-33
   5.530000      2.0080017E-33
   5.540000      2.2264688E-33
   5.550000      2.4567083E-33
   5.560000      2.6966922E-33
   5.570000      2.9464846E-33
   5.580000      3.2046904E-33
   5.590000      3.4715955E-33
   5.600000      3.7464265E-33
   5.610000      4.0290462E-33
   5.620000      4.3193198E-33
   5.630000      4.6164999E-33
   5.640000      4.9215825E-33
   5.650000      5.2308217E-33
   5.660000      5.5406364E-33
   5.670000      5.8515209E-33
   5.680000      6.1619047E-33
   5.690000      6.4698893E-33
   5.700000      6.7710671E-33
   5.710000      7.0667671E-33
   5.720000      7.3556897E-33
   5.730000      7.6318185E-33
   5.740000      7.8951593E-33
   5.750000      8.1436008E-33
   5.760000      8.3741417E-33
   5.770000      8.5836397E-33
   5.780000      8.7710172E-33
   5.790000      8.9349164E-33
   5.800000      9.0711885E-33
   5.810000      9.1783495E-33
   5.820000      9.2547706E-33
   5.830000      9.2958387E-33
   5.840000      9.3003519E-33
   5.850000      9.2635156E-33
   5.860000      9.1832837E-33
   5.870000      9.0593307E-33
   5.880000      8.8863141E-33
   5.890000      8.6609954E-33
   5.900000      8.3797510E-33
   5.910000      8.0389649E-33
   5.920000      7.6345522E-33
   5.930000      7.1632951E-33
   5.940000      6.6216273E-33
   5.950000      6.0054647E-33
   5.960000      5.3106296E-33
   5.970000      4.5332536E-33
   5.980000      3.6685092E-33
   5.990000      2.7131214E-33
   6.000000      1.6646319E-33
   6.010000      5.1884075E-34
   6.020000     -7.2750344E-34
   6.030000     -2.0774018E-33
   6.040000     -3.5349341E-33
   6.050000     -5.1011834E-33
   6.060000     -6.7757809E-33
   6.070000     -8.5612312E-33
   6.080000     -1.0458920E-32
   6.090000     -1.2468968E-32
   6.100000     -1.4591435E-32
   6.110000     -1.6826177E-32
   6.120000     -1.9173797E-32
   6.130000     -2.1631119E-32
   6.140000     -2.4193743E-32
   6.150000     -2.6862035E-32
   6.160000     -2.9634001E-32
   6.170000     -3.2504782E-32
   6.180000     -3.5471418E-32
   6.190000     -3.8529746E-32
   6.200000     -4.1673455E-32
   6.210000     -4.4896570E-32
   6.220000     -4.8192582E-32
   6.230000     -5.1553973E-32
   6.240000     -5.4972469E-32
   6.250000     -5.8438691E-32
   6.260000     -6.1942222E-32
   6.270000     -6.5472044E-32
   6.280000     -6.9016124E-32
   6.290000     -7.2561197E-32
   6.300000     -7.6092941E-32
   6.310000     -7.9595955E-32
   6.320000     -8.3053660E-32
   6.330000     -8.6448494E-32
   6.340000     -8.9761495E-32
   6.350000     -9.2972305E-32
   6.360000     -9.6059371E-32
   6.370000     -9.8999805E-32
   6.380000     -1.0176950E-31
   6.390000     -1.0434309E-31
   6.400000     -1.0669393E-31
   6.410000     -1.0879400E-31
   6.420000     -1.1061412E-31
   6.430000     -1.1212422E-31
   6.440000     -1.1329311E-31
   6.450000     -1.1408852E-31
   6.460000     -1.1447774E-31
   6.470000     -1.1442696E-31
   6.480000     -1.1390122E-31
   6.490000     -1.1286551E-31
   6.500000     -1.1128433E-31
   6.510000     -1.0912156E-31
   6.520000     -1.0634081E-31
   6.530000     -1.0290537E-31
   6.540000     -9.8778448E-32
   6.550000     -9.3923151E-32
   6.560000     -8.8302660E-32
   6.570000     -8.1880352E-32
   6.580000     -7.4619999E-32
   6.590000     -6.6485908E-32
   6.600000     -5.7442971E-32
   6.610000     -4.7456970E-32
   6.620000     -3.6494780E-32
   6.630000     -2.4524524E-32
   6.640000     -1.1515844E-32
   6.650000      2.5598968E-33
   6.660000      1.7729432E-32
   6.670000      3.4017258E-32
   6.680000      5.1445310E-32
   6.690000      7.0032803E-32
   6.700000      8.9795890E-32
   6.710000      1.1074738E-31
   6.720000      1.3289640E-31
   6.730000      1.5624810E-31
   6.740000      1.8080321E-31
   6.750000      2.0655770E-31
   6.760000      2.3350255E-31
   6.770000      2.6162345E-31
   6.780000      2.9089994E-31
   6.790000      3.2130532E-31
   6.800000      3.5280664E-31
   6.810000      3.8536396E-31
   6.820000      4.1892959E-31
   6.830000      4.5344906E-31
   6.840000      4.8886012E-31
   6.850000      5.2509112E-31
   6.860000      5.6206253E-31
   6.870000      5.9968587E-31
   6.880000      6.3786348E-31
   6.890000      6.7648835E-31
   6.900000      7.1544404E-31
   6.910000      7.5460432E-31
   6.920000      7.9383278E-31
   6.930000      8.3298285E-31
   6.940000      8.7189754E-31
   6.950000      9.1040937E-31
   6.960000      9.4834013E-31
   6.970000      9.8550089E-31
   6.980000      1.0216919E-30
   6.990000      1.0567025E-30
   7.000000      1.0903111E-30
   7.010000      1.1222853E-30
   7.020000      1.1523821E-30
   7.030000      1.1803477E-30
   7.040000      1.2059182E-30
   7.050000      1.2288194E-30
   7.060000      1.2487672E-30