  -2.600000      0.0000000E+00
  -2.590000      0.0000000E+00
  -2.580000      0.0000000E+00
  -2.570000      0.0000000E+00
  -2.560000      0.0000000E+00
  -2.550000      0.0000000E+00
  -2.540000      0.0000000E+00
  -2.530000      0.0000000E+00
  -2.520000      0.0000000E+00
  -2.510000      0.0000000E+00
  -2.500000      0.0000000E+00
  -2.490000      0.0000000E+00
  -2.480000      0.0000000E+00
  -2.470000      0.0000000E+00
  -2.460000      0.0000000E+00
  -2.450000      0.0000000E+00
  -2.440000      0.0000000E+00
  -2.430000      0.0000000E+00
  -2.420000      0.0000000E+00
  -2.410000      0.0000000E+00
  -2.400000      0.0000000E+00
  -2.390000      0.0000000E+00
  -2.380000      0.0000000E+00
  -2.370000      0.0000000E+00
  -2.360000      0.0000000E+00
  -2.350000      0.0000000E+00
  -2.340000      0.0000000E+00
  -2.330000      0.0000000E+00
  -2.320000      0.0000000E+00
  -2.310000      0.0000000E+00
  -2.300000      0.0000000E+00
  -2.290000      0.0000000E+00
  -2.280000      0.0000000E+00
  -2.270000      0.0000000E+00
  -2.260000      0.0000000E+00
  -2.250000      0.0000000E+00
  -2.240000      0.0000000E+00
  -2.230000      0.0000000E+00
  -2.220000      0.0000000E+00
  -2.210000      0.0000000E+00
  -2.200000      0.0000000E+00
  -2.190000      0.0000000E+00
  -2.180000      0.0000000E+00
  -2.170000      0.0000000E+00
  -2.160000      0.0000000E+00
  -2.150000      0.0000000E+00
  -2.140000      0.0000000E+00
  -2.130000      0.0000000E+00
  -2.120000      0.0000000E+00
  -2.110000      0.0000000E+00
  -2.100000      0.0000000E+00
  -2.090000      0.0000000E+00
  -2.080000      0.0000000E+00
  -2.070000      0.0000000E+00
  -2.060000      0.0000000E+00
  -2.050000      0.0000000E+00
  -2.040000      0.0000000E+00
  -2.030000      0.0000000E+00
  -2.020000      0.0000000E+00
  -2.010000      0.0000000E+00
  -2.000000      0.0000000E+00
  -1.990000      0.0000000E+00
  -1.980000      0.0000000E+00
  -1.970000      0.0000000E+00
  -1.960000      0.0000000E+00
  -1.950000      0.0000000E+00
  -1.940000      0.0000000E+00
  -1.930000      0.0000000E+00
  -1.920000      0.0000000E+00
  -1.910000      0.0000000E+00
  -1.900000      0.0000000E+00
  -1.890000      0.0000000E+00
  -1.880000      0.0000000E+00
  -1.870000      0.0000000E+00
  -1.860000      0.0000000E+00
  -1.850000      0.0000000E+00
  -1.840000      0.0000000E+00
  -1.830000      0.0000000E+00
  -1.820000      0.0000000E+00
  -1.810000      0.0000000E+00
  -1.800000      0.0000000E+00
  -1.790000      0.0000000E+00
  -1.780000      0.0000000E+00
  -1.770000      0.0000000E+00
  -1.760000      0.0000000E+00
  -1.750000      0.0000000E+00
  -1.740000      0.0000000E+00
  -1.730000      0.0000000E+00
  -1.720000      0.0000000E+00
  -1.710000      0.0000000E+00
  -1.700000      0.0000000E+00
  -1.690000      0.0000000E+00
  -1.680000      0.0000000E+00
  -1.670000      0.0000000E+00
  -1.660000      0.0000000E+00
  -1.650000      0.0000000E+00
  -1.640000      0.0000000E+00
  -1.630000      0.0000000E+00
  -1.620000      0.0000000E+00
  -1.610000      0.0000000E+00
  -1.600000      0.0000000E+00
  -1.590000      0.0000000E+00
  -1.580000      0.0000000E+00
  -1.570000      0.0000000E+00
  -1.560000      0.0000000E+00
  -1.550000      0.0000000E+00
  -1.540000      0.0000000E+00
  -1.530000      0.0000000E+00
  -1.520000      0.0000000E+00
  -1.510000      0.0000000E+00
  -1.500000      0.0000000E+00
  -1.490000      0.0000000E+00
  -1.480000      0.0000000E+00
  -1.470000      0.0000000E+00
  -1.460000      0.0000000E+00
  -1.450000      0.0000000E+00
  -1.440000      0.0000000E+00
  -1.430000      0.0000000E+00
  -1.420000      0.0000000E+00
  -1.410000      0.0000000E+00
  -1.400000      0.0000000E+00
  -1.390000      0.0000000E+00
  -1.380000      0.0000000E+00
  -1.370000      0.0000000E+00
  -1.360000      0.0000000E+00
  -1.350000      0.0000000E+00
  -1.340000      0.0000000E+00
  -1.330000      0.0000000E+00
  -1.320000      0.0000000E+00
  -1.310000      0.0000000E+00
  -1.300000      0.0000000E+00
  -1.290000      0.0000000E+00
  -1.280000      0.0000000E+00
  -1.270000      0.0000000E+00
  -1.260000      0.0000000E+00
  -1.250000      0.0000000E+00
  -1.240000      0.0000000E+00
  -1.230000      0.0000000E+00
  -1.220000      0.0000000E+00
  -1.210000      0.0000000E+00
  -1.200000      0.0000000E+00
  -1.190000      0.0000000E+00
  -1.180000      0.0000000E+00
  -1.170000      0.0000000E+00
  -1.160000      0.0000000E+00
  -1.150000      0.0000000E+00
  -1.140000      0.0000000E+00
  -1.130000      0.0000000E+00
  -1.120000      0.0000000E+00
  -1.110000      0.0000000E+00
  -1.100000      0.0000000E+00
  -1.090000      0.0000000E+00
  -1.080000      0.0000000E+00
  -1.070000      0.0000000E+00
  -1.060000      0.0000000E+00
  -1.050000      0.0000000E+00
  -1.040000      0.0000000E+00
  -1.030000      0.0000000E+00
  -1.020000      0.0000000E+00
  -1.010000      0.0000000E+00
  -1.000000      0.0000000E+00
 -0.9900000      0.0000000E+00
 -0.9800000      0.0000000E+00
 -0.9700000      0.0000000E+00
 -0.9600000      0.0000000E+00
 -0.9500000      0.0000000E+00
 -0.9400000      0.0000000E+00
 -0.9300000      0.0000000E+00
 -0.9200000      0.0000000E+00
 -0.9100000      0.0000000E+00
 -0.9000000      0.0000000E+00
 -0.8900000      0.0000000E+00
 -0.8800000      0.0000000E+00
 -0.8700000      0.0000000E+00
 -0.8600000      0.0000000E+00
 -0.8500000      0.0000000E+00
 -0.8400000      0.0000000E+00
 -0.8300000      0.0000000E+00
 -0.8200000      0.0000000E+00
 -0.8100000      0.0000000E+00
 -0.8000000      0.0000000E+00
 -0.7900000      0.0000000E+00
 -0.7800000      0.0000000E+00
 -0.7700000      0.0000000E+00
 -0.7600000      0.0000000E+00
 -0.7500000      0.0000000E+00
 -0.7400000      0.0000000E+00
 -0.7300000      0.0000000E+00
 -0.7200000      0.0000000E+00
 -0.7100000      0.0000000E+00
 -0.7000000      0.0000000E+00
 -0.6900000      0.0000000E+00
 -0.6800000      0.0000000E+00
 -0.6700000      0.0000000E+00
 -0.6600000      0.0000000E+00
 -0.6500000      0.0000000E+00
 -0.6400000      0.0000000E+00
 -0.6300000      0.0000000E+00
 -0.6200000      0.0000000E+00
 -0.6100000      0.0000000E+00
 -0.6000000      0.0000000E+00
 -0.5900000      0.0000000E+00
 -0.5800000      0.0000000E+00
 -0.5700000      0.0000000E+00
 -0.5600000      0.0000000E+00
 -0.5500000      0.0000000E+00
 -0.5400000      0.0000000E+00
 -0.5300000      0.0000000E+00
 -0.5200000      0.0000000E+00
 -0.5100000      0.0000000E+00
 -0.5000000      0.0000000E+00
 -0.4900000      0.0000000E+00
 -0.4800000      0.0000000E+00
 -0.4700000      0.0000000E+00
 -0.4600000      0.0000000E+00
 -0.4500000      0.0000000E+00
 -0.4400000      0.0000000E+00
 -0.4300000      0.0000000E+00
 -0.4200000      0.0000000E+00
 -0.4100000      0.0000000E+00
 -0.4000000      0.0000000E+00
 -0.3900000      0.0000000E+00
 -0.3800000      0.0000000E+00
 -0.3700000      0.0000000E+00
 -0.3600000      0.0000000E+00
 -0.3500000      0.0000000E+00
 -0.3400000      0.0000000E+00
 -0.3300000      0.0000000E+00
 -0.3200000      0.0000000E+00
 -0.3100000      0.0000000E+00
 -0.3000000      0.0000000E+00
 -0.2900000      0.0000000E+00
 -0.2800000      0.0000000E+00
 -0.2700000      0.0000000E+00
 -0.2600000      0.0000000E+00
 -0.2500000      0.0000000E+00
 -0.2400000      0.0000000E+00
 -0.2300000      0.0000000E+00
 -0.2200000      0.0000000E+00
 -0.2100000      0.0000000E+00
 -0.2000000      0.0000000E+00
 -0.1900000      0.0000000E+00
 -0.1800000      0.0000000E+00
 -0.1700000      0.0000000E+00
 -0.1600000      0.0000000E+00
 -0.1500000      0.0000000E+00
 -0.1400000      0.0000000E+00
 -0.1300000      0.0000000E+00
 -0.1200000      0.0000000E+00
 -0.1100000      0.0000000E+00
 -0.1000000      0.0000000E+00
 -9.0000004E-02  0.0000000E+00
 -7.9999998E-02  0.0000000E+00
 -7.0000000E-02  0.0000000E+00
 -5.9999999E-02  0.0000000E+00
 -5.0000001E-02  0.0000000E+00
 -3.9999999E-02  0.0000000E+00
 -2.9999999E-02  0.0000000E+00
 -2.0000000E-02  0.0000000E+00
 -9.9999998E-03  0.0000000E+00
 -3.4694470E-17  0.0000000E+00
  9.9999998E-03  0.0000000E+00
  2.0000000E-02  0.0000000E+00
  2.9999999E-02  0.0000000E+00
  3.9999999E-02  0.0000000E+00
  5.0000001E-02  0.0000000E+00
  5.9999999E-02  0.0000000E+00
  7.0000000E-02  0.0000000E+00
  7.9999998E-02  0.0000000E+00
  9.0000004E-02  0.0000000E+00
  0.1000000      0.0000000E+00
  0.1100000      0.0000000E+00
  0.1200000      0.0000000E+00
  0.1300000      0.0000000E+00
  0.1400000      0.0000000E+00
  0.1500000      0.0000000E+00
  0.1600000      0.0000000E+00
  0.1700000      0.0000000E+00
  0.1800000      0.0000000E+00
  0.1900000      0.0000000E+00
  0.2000000      0.0000000E+00
  0.2100000      0.0000000E+00
  0.2200000      0.0000000E+00
  0.2300000      0.0000000E+00
  0.2400000      0.0000000E+00
  0.2500000      0.0000000E+00
  0.2600000      0.0000000E+00
  0.2700000      0.0000000E+00
  0.2800000      0.0000000E+00
  0.2900000      0.0000000E+00
  0.3000000      0.0000000E+00
  0.3100000      0.0000000E+00
  0.3200000      0.0000000E+00
  0.3300000      0.0000000E+00
  0.3400000      0.0000000E+00
  0.3500000      0.0000000E+00
  0.3600000      0.0000000E+00
  0.3700000      0.0000000E+00
  0.3800000      0.0000000E+00
  0.3900000      0.0000000E+00
  0.4000000      0.0000000E+00
  0.4100000      0.0000000E+00
  0.4200000      0.0000000E+00
  0.4300000      0.0000000E+00
  0.4400000      0.0000000E+00
  0.4500000      0.0000000E+00
  0.4600000      0.0000000E+00
  0.4700000      0.0000000E+00
  0.4800000      0.0000000E+00
  0.4900000      0.0000000E+00
  0.5000000      0.0000000E+00
  0.5100000      0.0000000E+00
  0.5200000      0.0000000E+00
  0.5300000      0.0000000E+00
  0.5400000      0.0000000E+00
  0.5500000      0.0000000E+00
  0.5600000      0.0000000E+00
  0.5700000      0.0000000E+00
  0.5800000      0.0000000E+00
  0.5900000      0.0000000E+00
  0.6000000      0.0000000E+00
  0.6100000      0.0000000E+00
  0.6200000      0.0000000E+00
  0.6300000      0.0000000E+00
  0.6400000      0.0000000E+00
  0.6500000      0.0000000E+00
  0.6600000      0.0000000E+00
  0.6700000      0.0000000E+00
  0.6800000      0.0000000E+00
  0.6900000      0.0000000E+00
  0.7000000      0.0000000E+00
  0.7100000      0.0000000E+00
  0.7200000      0.0000000E+00
  0.7300000      0.0000000E+00
  0.7400000      0.0000000E+00
  0.7500000      0.0000000E+00
  0.7600000      0.0000000E+00
  0.7700000      0.0000000E+00
  0.7800000      0.0000000E+00
  0.7900000      0.0000000E+00
  0.8000000      0.0000000E+00
  0.8100000      0.0000000E+00
  0.8200000      0.0000000E+00
  0.8300000      0.0000000E+00
  0.8400000      0.0000000E+00
  0.8500000      0.0000000E+00
  0.8600000      0.0000000E+00
  0.8700000      0.0000000E+00
  0.8800000      0.0000000E+00
  0.8900000      0.0000000E+00
  0.9000000      0.0000000E+00
  0.9100000      0.0000000E+00
  0.9200000      0.0000000E+00
  0.9300000      0.0000000E+00
  0.9400000      0.0000000E+00
  0.9500000      0.0000000E+00
  0.9600000      0.0000000E+00
  0.9700000      0.0000000E+00
  0.9800000      0.0000000E+00
  0.9900000      0.0000000E+00
   1.000000      0.0000000E+00
   1.010000      0.0000000E+00
   1.020000      0.0000000E+00
   1.030000      0.0000000E+00
   1.040000      0.0000000E+00
   1.050000      0.0000000E+00
   1.060000      0.0000000E+00
   1.070000      0.0000000E+00
   1.080000      0.0000000E+00
   1.090000      0.0000000E+00
   1.100000      0.0000000E+00
   1.110000      0.0000000E+00
   1.120000      0.0000000E+00
   1.130000      0.0000000E+00
   1.140000      0.0000000E+00
   1.150000      0.0000000E+00
   1.160000      0.0000000E+00
   1.170000      0.0000000E+00
   1.180000      0.0000000E+00
   1.190000      0.0000000E+00
   1.200000      0.0000000E+00
   1.210000      0.0000000E+00
   1.220000      0.0000000E+00
   1.230000      0.0000000E+00
   1.240000      0.0000000E+00
   1.250000      0.0000000E+00
   1.260000      0.0000000E+00
   1.270000      0.0000000E+00
   1.280000      0.0000000E+00
   1.290000      0.0000000E+00
   1.300000      0.0000000E+00
   1.310000      0.0000000E+00
   1.320000      0.0000000E+00
   1.330000      0.0000000E+00
   1.340000      0.0000000E+00
   1.350000      0.0000000E+00
   1.360000      0.0000000E+00
   1.370000      0.0000000E+00
   1.380000      0.0000000E+00
   1.390000      0.0000000E+00
   1.400000      0.0000000E+00
   1.410000      0.0000000E+00
   1.420000      0.0000000E+00
   1.430000      0.0000000E+00
   1.440000      0.0000000E+00
   1.450000      0.0000000E+00
   1.460000      0.0000000E+00
   1.470000      0.0000000E+00
   1.480000      0.0000000E+00
   1.490000      0.0000000E+00
   1.500000      0.0000000E+00
   1.510000      0.0000000E+00
   1.520000      0.0000000E+00
   1.530000      0.0000000E+00
   1.540000      0.0000000E+00
   1.550000      0.0000000E+00
   1.560000      0.0000000E+00
   1.570000      0.0000000E+00
   1.580000      0.0000000E+00
   1.590000      0.0000000E+00
   1.600000      0.0000000E+00
   1.610000      0.0000000E+00
   1.620000      0.0000000E+00
   1.630000      0.0000000E+00
   1.640000      0.0000000E+00
   1.650000      0.0000000E+00
   1.660000      0.0000000E+00
   1.670000      0.0000000E+00
   1.680000      0.0000000E+00
   1.690000      0.0000000E+00
   1.700000      0.0000000E+00
   1.710000      0.0000000E+00
   1.720000      0.0000000E+00
   1.730000      0.0000000E+00
   1.740000      0.0000000E+00
   1.750000      0.0000000E+00
   1.760000      0.0000000E+00
   1.770000      0.0000000E+00
   1.780000      0.0000000E+00
   1.790000      0.0000000E+00
   1.800000      0.0000000E+00
   1.810000      0.0000000E+00
   1.820000      0.0000000E+00
   1.830000      0.0000000E+00
   1.840000      0.0000000E+00
   1.850000      0.0000000E+00
   1.860000      0.0000000E+00
   1.870000      0.0000000E+00
   1.880000      0.0000000E+00
   1.890000      0.0000000E+00
   1.900000      0.0000000E+00
   1.910000      0.0000000E+00
   1.920000      0.0000000E+00
   1.930000      0.0000000E+00
   1.940000      0.0000000E+00
   1.950000      0.0000000E+00
   1.960000      0.0000000E+00
   1.970000      0.0000000E+00
   1.980000      0.0000000E+00
   1.990000      0.0000000E+00
   2.000000      0.0000000E+00
   2.010000      0.0000000E+00
   2.020000      0.0000000E+00
   2.030000      0.0000000E+00
   2.040000      0.0000000E+00
   2.050000      0.0000000E+00
   2.060000      0.0000000E+00
   2.070000      0.0000000E+00
   2.080000      0.0000000E+00
   2.090000      0.0000000E+00
   2.100000      0.0000000E+00
   2.110000      0.0000000E+00
   2.120000      0.0000000E+00
   2.130000      0.0000000E+00
   2.140000      0.0000000E+00
   2.150000      0.0000000E+00
   2.160000      0.0000000E+00
   2.170000      0.0000000E+00
   2.180000      0.0000000E+00
   2.190000      0.0000000E+00
   2.200000      0.0000000E+00
   2.210000      0.0000000E+00
   2.220000      0.0000000E+00
   2.230000      0.0000000E+00
   2.240000      0.0000000E+00
   2.250000      0.0000000E+00
   2.260000      0.0000000E+00
   2.270000      0.0000000E+00
   2.280000      0.0000000E+00
   2.290000      0.0000000E+00
   2.300000      0.0000000E+00
   2.310000      0.0000000E+00
   2.320000      0.0000000E+00
   2.330000      0.0000000E+00
   2.340000      0.0000000E+00
   2.350000      0.0000000E+00
   2.360000      0.0000000E+00
   2.370000      0.0000000E+00
   2.380000      0.0000000E+00
   2.390000      0.0000000E+00
   2.400000      0.0000000E+00
   2.410000      0.0000000E+00
   2.420000      0.0000000E+00
   2.430000      0.0000000E+00
   2.440000      0.0000000E+00
   2.450000      0.0000000E+00
   2.460000      0.0000000E+00
   2.470000      0.0000000E+00
   2.480000      0.0000000E+00
   2.490000      0.0000000E+00
   2.500000      0.0000000E+00
   2.510000      0.0000000E+00
   2.520000      0.0000000E+00
   2.530000      0.0000000E+00
   2.540000      0.0000000E+00
   2.550000      0.0000000E+00
   2.560000      0.0000000E+00
   2.570000      0.0000000E+00
   2.580000      0.0000000E+00
   2.590000      0.0000000E+00
   2.600000      0.0000000E+00
   2.610000      0.0000000E+00
   2.620000      0.0000000E+00
   2.630000      0.0000000E+00
   2.640000      0.0000000E+00
   2.650000      0.0000000E+00
   2.660000      0.0000000E+00
   2.670000      0.0000000E+00
   2.680000      0.0000000E+00
   2.690000      0.0000000E+00
   2.700000      0.0000000E+00
   2.710000      0.0000000E+00
   2.720000      0.0000000E+00
   2.730000      0.0000000E+00
   2.740000      1.3468750E-38
   2.750000      1.5790031E-38
   2.760000      1.8070126E-38
   2.770000      2.0366067E-38
   2.780000      2.2661740E-38
   2.790000      2.4844613E-38
   2.800000      2.6742108E-38
   2.810000      2.8458755E-38
   2.820000      3.0247694E-38
   2.830000      3.2089446E-38
   2.840000      3.3677072E-38
   2.850000      3.4909946E-38
   2.860000      3.5995028E-38
   2.870000      3.6950478E-38
   2.880000      3.7790315E-38
   2.890000      3.8370189E-38
   2.900000      3.7894090E-38
   2.910000      3.6447524E-38
   2.920000      3.4767078E-38
   2.930000      3.2847041E-38
   2.940000      3.0807735E-38
   2.950000      2.8615058E-38
   2.960000      2.6559426E-38
   2.970000      2.4528794E-38
   2.980000      2.2013132E-38
   2.990000      1.8993363E-38
   3.000000      1.5355786E-38
   3.010000      0.0000000E+00
   3.020000      0.0000000E+00
   3.030000      0.0000000E+00
   3.040000      0.0000000E+00
   3.050000     -1.1993362E-38
   3.060000     -2.0103703E-38
   3.070000     -2.9146299E-38
   3.080000     -3.9148414E-38
   3.090000     -4.2370879E-38
   3.100000     -3.8835154E-38
   3.110000     -3.5550768E-38
   3.120000     -3.1909332E-38
   3.130000     -2.8511998E-38
   3.140000     -2.4874547E-38
   3.150000     -2.0273608E-38
   3.160000     -1.4611982E-38
   3.170000      0.0000000E+00
   3.180000      0.0000000E+00
   3.190000      0.0000000E+00
   3.200000     -3.9743549E-38
   3.210000     -1.4171023E-37
   3.220000     -2.4614016E-37
   3.230000     -3.4469220E-37
   3.240000     -4.3320131E-37
   3.250000     -4.6326797E-37
   3.260000     -4.4039945E-37
   3.270000     -4.1587951E-37
   3.280000     -3.9005804E-37
   3.290000     -3.6190598E-37
   3.300000     -3.3142117E-37
   3.310000     -2.9947647E-37
   3.320000     -2.6692541E-37
   3.330000     -2.3962879E-37
   3.340000     -2.6162491E-37
   3.350000     -3.5274487E-37
   3.360000     -4.6971668E-37
   3.370000     -5.8585522E-37
   3.380000     -6.6951857E-37
   3.390000     -7.3322236E-37
   3.400000     -8.1794657E-37
   3.410000     -9.2332556E-37
   3.420000     -1.0706242E-36
   3.430000     -1.2791182E-36
   3.440000     -1.3792098E-36
   3.450000     -1.3119693E-36
   3.460000     -1.1408031E-36
   3.470000     -8.7126183E-37
   3.480000     -5.7994492E-37
   3.490000     -3.0676076E-37
   3.500000     -7.1837123E-38
   3.510000      6.0510226E-38
   3.520000      1.1552861E-37
   3.530000      1.6763596E-37
   3.540000      1.9129211E-37
   3.550000      1.6136758E-37
   3.560000      1.1307307E-37
   3.570000      1.9385695E-37
   3.580000      4.2229261E-37
   3.590000      6.9642991E-37
   3.600000      1.0035292E-36
   3.610000      1.5618843E-36
   3.620000      2.3485551E-36
   3.630000      3.0401241E-36
   3.640000      3.4490044E-36
   3.650000      3.6714583E-36
   3.660000      3.8575364E-36
   3.670000      3.9767346E-36
   3.680000      3.9239636E-36
   3.690000      3.7415568E-36
   3.700000      3.7405355E-36
   3.710000      3.9315576E-36
   3.720000      4.3047928E-36
   3.730000      4.8691758E-36
   3.740000      5.5470078E-36
   3.750000      6.3644015E-36
   3.760000      7.3341685E-36
   3.770000      8.4925456E-36
   3.780000      9.1545432E-36
   3.790000      8.9002651E-36
   3.800000      8.3878804E-36
   3.810000      7.6392288E-36
   3.820000      6.5945247E-36
   3.830000      5.5315138E-36
   3.840000      4.4109417E-36
   3.850000      3.0239201E-36
   3.860000      2.1807978E-36
   3.870000      2.2192075E-36
   3.880000      2.4404777E-36
   3.890000      2.8494709E-36
   3.900000      2.8960437E-36
   3.910000      2.3814978E-36
   3.920000      1.0556483E-36
   3.930000     -1.1043444E-36
   3.940000     -3.4936924E-36
   3.950000     -5.6052943E-36
   3.960000     -7.5320461E-36
   3.970000     -9.7137482E-36
   3.980000     -1.1959410E-35
   3.990000     -1.4326167E-35
   4.000000     -1.6107406E-35
   4.010000     -1.6823271E-35
   4.020000     -1.7151016E-35
   4.030000     -1.8016460E-35
   4.040000     -1.9399883E-35
   4.050000     -2.0725776E-35
   4.060000     -2.2309511E-35
   4.070000     -2.4561992E-35
   4.080000     -2.7214884E-35
   4.090000     -2.9198694E-35
   4.100000     -3.0225975E-35
   4.110000     -3.0183274E-35
   4.120000     -2.9162069E-35
   4.130000     -2.7588603E-35
   4.140000     -2.5762953E-35
   4.150000     -2.4163472E-35
   4.160000     -2.2715024E-35
   4.170000     -2.2150406E-35
   4.180000     -2.2967241E-35
   4.190000     -2.4555328E-35
   4.200000     -2.6397201E-35
   4.210000     -2.8487173E-35
   4.220000     -3.0941967E-35
   4.230000     -3.3800924E-35
   4.240000     -3.5138290E-35
   4.250000     -3.3526098E-35
   4.260000     -2.9723967E-35
   4.270000     -2.4127217E-35
   4.280000     -1.7177853E-35
   4.290000     -9.9029609E-36
   4.300000     -3.6810773E-36
   4.310000      1.6568524E-36
   4.320000      6.4253028E-36
   4.330000      1.0167307E-35
   4.340000      1.2109928E-35
   4.350000      1.1753254E-35
   4.360000      1.0339009E-35
   4.370000      9.2778008E-36
   4.380000      9.2452839E-36
   4.390000      1.2026729E-35
   4.400000      1.8400628E-35
   4.410000      2.7016356E-35
   4.420000      3.6218978E-35
   4.430000      4.5896106E-35
   4.440000      5.7193431E-35
   4.450000      7.0397418E-35
   4.460000      8.3506143E-35
   4.470000      9.4741246E-35
   4.480000      1.0464256E-34
   4.490000      1.1372173E-34
   4.500000      1.2186389E-34
   4.510000      1.2818933E-34
   4.520000      1.3305767E-34
   4.530000      1.3790719E-34
   4.540000      1.4393197E-34
   4.550000      1.5000795E-34
   4.560000      1.5553252E-34
   4.570000      1.6206345E-34
   4.580000      1.6851590E-34
   4.590000      1.7331651E-34
   4.600000      1.7698972E-34
   4.610000      1.7915042E-34
   4.620000      1.7902063E-34
   4.630000      1.7881809E-34
   4.640000      1.8197176E-34
   4.650000      1.8549168E-34
   4.660000      1.8668455E-34
   4.670000      1.8663277E-34
   4.680000      1.8304901E-34
   4.690000      1.7625789E-34
   4.700000      1.6779506E-34
   4.710000      1.5716857E-34
   4.720000      1.4697853E-34
   4.730000      1.3995652E-34
   4.740000      1.3427334E-34
   4.750000      1.2982456E-34
   4.760000      1.2809291E-34
   4.770000      1.2603196E-34
   4.780000      1.2067811E-34
   4.790000      1.1186990E-34
   4.800000      9.7906190E-35
   4.810000      7.9194570E-35
   4.820000      5.4251119E-35
   4.830000      2.0908579E-35
   4.840000     -1.8040702E-35
   4.850000     -5.7972207E-35
   4.860000     -1.0400051E-34
   4.870000     -1.5478957E-34
   4.880000     -2.0202725E-34
   4.890000     -2.4922746E-34
   4.900000     -2.9571223E-34
   4.910000     -3.3808691E-34
   4.920000     -3.7734436E-34
   4.930000     -4.2038732E-34
   4.940000     -4.6898694E-34
   4.950000     -5.0808755E-34
   4.960000     -5.3632210E-34
   4.970000     -5.5684375E-34
   4.980000     -5.6867290E-34
   4.990000     -5.8315609E-34
   5.000000     -6.0613792E-34
   5.010000     -6.3427108E-34
   5.020000     -6.6483270E-34
   5.030000     -7.0588073E-34
   5.040000     -7.6776178E-34
   5.050000     -8.4759241E-34
   5.060000     -9.4320161E-34
   5.070000     -1.0511859E-33
   5.080000     -1.1530660E-33
   5.090000     -1.2484992E-33
   5.100000     -1.3414815E-33
   5.110000     -1.4235753E-33
   5.120000     -1.4815844E-33
   5.130000     -1.5132686E-33
   5.140000     -1.5337629E-33
   5.150000     -1.5484317E-33
   5.160000     -1.5608895E-33
   5.170000     -1.5730480E-33
   5.180000     -1.5830505E-33
   5.190000     -1.5986235E-33
   5.200000     -1.6239030E-33
   5.210000     -1.6526878E-33
   5.220000     -1.6853994E-33
   5.230000     -1.7166297E-33
   5.240000     -1.7375274E-33
   5.250000     -1.7528950E-33
   5.260000     -1.7575690E-33
   5.270000     -1.7433882E-33
   5.280000     -1.7161106E-33
   5.290000     -1.6694430E-33
   5.300000     -1.5893079E-33
   5.310000     -1.4797642E-33
   5.320000     -1.3468331E-33
   5.330000     -1.1959581E-33
   5.340000     -1.0353159E-33
   5.350000     -8.6848590E-34
   5.360000     -6.9349644E-34
   5.370000     -5.1406866E-34
   5.380000     -3.3442077E-34
   5.390000     -1.4804466E-34
   5.400000      3.6433394E-35
   5.410000      2.2507519E-34
   5.420000      4.3478730E-34
   5.430000      6.6708928E-34
   5.440000      9.2926878E-34
   5.450000      1.2304311E-33
   5.460000      1.5705740E-33
   5.470000      1.9504263E-33
   5.480000      2.3663541E-33
   5.490000      2.8157880E-33
   5.500000      3.2937028E-33
   5.510000      3.7890573E-33
   5.520000      4.3019677E-33
   5.530000      4.8271958E-33
   5.540000      5.3582614E-33
   5.550000      5.8953558E-33
   5.560000      6.4382597E-33
   5.570000      6.9859945E-33
   5.580000      7.5379450E-33
   5.590000      8.0964348E-33
   5.600000      8.6659163E-33
   5.610000      9.2507027E-33
   5.620000      9.8531766E-33
   5.630000      1.0472593E-32
   5.640000      1.1110478E-32
   5.650000      1.1762500E-32
   5.660000      1.2420666E-32
   5.670000      1.3082335E-32
   5.680000      1.3742391E-32
   5.690000      1.4392003E-32
   5.700000      1.5022497E-32
   5.710000      1.5625874E-32
   5.720000      1.6195660E-32
   5.730000      1.6726641E-32
   5.740000      1.7216074E-32
   5.750000      1.7663021E-32
   5.760000      1.8064293E-32
   5.770000      1.8418292E-32
   5.780000      1.8725537E-32
   5.790000      1.8985409E-32
   5.800000      1.9196122E-32
   5.810000      1.9353477E-32
   5.820000      1.9451406E-32
   5.830000      1.9486750E-32
   5.840000      1.9448140E-32
   5.850000      1.9322177E-32
   5.860000      1.9100456E-32
   5.870000      1.8770115E-32
   5.880000      1.8318235E-32
   5.890000      1.7734073E-32
   5.900000      1.7009187E-32
   5.910000      1.6135854E-32
   5.920000      1.5112523E-32
   5.930000      1.3927373E-32
   5.940000      1.2575186E-32
   5.950000      1.1064730E-32
   5.960000      9.3936780E-33
   5.970000      7.5550043E-33
   5.980000      5.5482874E-33
   5.990000      3.3713982E-33
   6.000000      1.0173393E-33
   6.010000     -1.5204036E-33
   6.020000     -4.2523556E-33
   6.030000     -7.1884844E-33
   6.040000     -1.0338769E-32
   6.050000     -1.3712017E-32
   6.060000     -1.7315636E-32
   6.070000     -2.1155573E-32
   6.080000     -2.5233526E-32
   6.090000     -2.9547726E-32
   6.100000     -3.4094117E-32
   6.110000     -3.8869346E-32
   6.120000     -4.3867421E-32
   6.130000     -4.9078623E-32
   6.140000     -5.4493602E-32
   6.150000     -6.0102150E-32
   6.160000     -6.5894940E-32
   6.170000     -7.1863318E-32
   6.180000     -7.7998782E-32
   6.190000     -8.4293689E-32
   6.200000     -9.0739024E-32
   6.210000     -9.7324585E-32
   6.220000     -1.0404008E-31
   6.230000     -1.1087229E-31
   6.240000     -1.1780476E-31
   6.250000     -1.2481763E-31
   6.260000     -1.3188697E-31
   6.270000     -1.3898484E-31
   6.280000     -1.4608039E-31
   6.290000     -1.5313793E-31
   6.300000     -1.6011932E-31
   6.310000     -1.6698509E-31
   6.320000     -1.7369408E-31
   6.330000     -1.8020462E-31
   6.340000     -1.8647413E-31
   6.350000     -1.9246026E-31
   6.360000     -1.9811993E-31
   6.370000     -2.0340916E-31
   6.380000     -2.0828298E-31
   6.390000     -2.1269449E-31
   6.400000     -2.1659436E-31
   6.410000     -2.1993029E-31
   6.420000     -2.2264636E-31
   6.430000     -2.2468293E-31
   6.440000     -2.2597656E-31
   6.450000     -2.2646026E-31
   6.460000     -2.2606407E-31
   6.470000     -2.2471573E-31
   6.480000     -2.2234149E-31
   6.490000     -2.1886689E-31
   6.500000     -2.1421741E-31
   6.510000     -2.0831979E-31
   6.520000     -2.0110223E-31
   6.530000     -1.9249424E-31
   6.540000     -1.8242663E-31
   6.550000     -1.7083311E-31
   6.560000     -1.5764996E-31
   6.570000     -1.4281143E-31
   6.580000     -1.2625301E-31
   6.590000     -1.0791265E-31
   6.600000     -8.7727984E-32
   6.610000     -6.5637430E-32
   6.620000     -4.1580838E-32
   6.630000     -1.5499969E-32
   6.640000      1.2660566E-32
   6.650000      4.2952264E-32
   6.660000      7.5421692E-32
   6.670000      1.1010894E-31
   6.680000      1.4704663E-31
   6.690000      1.8625955E-31
   6.700000      2.2776355E-31
   6.710000      2.7156496E-31
   6.720000      3.1766044E-31
   6.730000      3.6603693E-31
   6.740000      4.1667132E-31
   6.750000      4.6953076E-31
   6.760000      5.2457244E-31
   6.770000      5.8174350E-31
   6.780000      6.4098071E-31
   6.790000      7.0220990E-31
   6.800000      7.6534519E-31
   6.810000      8.3028787E-31
   6.820000      8.9692532E-31
   6.830000      9.6513004E-31
   6.840000      1.0347581E-30
   6.850000      1.1056480E-30
   6.860000      1.1776201E-30
   6.870000      1.2504756E-30
   6.880000      1.3239957E-30
   6.890000      1.3979418E-30
   6.900000      1.4720554E-30
   6.910000      1.5460581E-30
   6.920000      1.6196522E-30
   6.930000      1.6925206E-30
   6.940000      1.7643279E-30
   6.950000      1.8347200E-30
   6.960000      1.9033247E-30
   6.970000      1.9697511E-30
   6.980000      2.0335902E-30
   6.990000      2.0944146E-30
   7.000000      2.1517772E-30
   7.010000      2.2052122E-30
   7.020000      2.2542344E-30
   7.030000      2.2983392E-30
   7.040000      2.3370031E-30
   7.050000      2.3696843E-30
   7.060000      2.3958236E-30