  -2.600000      0.0000000E+00
  -2.590000      0.0000000E+00
  -2.580000      0.0000000E+00
  -2.570000      0.0000000E+00
  -2.560000      0.0000000E+00
  -2.550000      0.0000000E+00
  -2.540000      0.0000000E+00
  -2.530000      0.0000000E+00
  -2.520000      0.0000000E+00
  -2.510000      0.0000000E+00
  -2.500000      0.0000000E+00
  -2.490000      0.0000000E+00
  -2.480000      0.0000000E+00
  -2.470000      0.0000000E+00
  -2.460000      0.0000000E+00
  -2.450000      0.0000000E+00
  -2.440000      0.0000000E+00
  -2.430000      0.0000000E+00
  -2.420000      0.0000000E+00
  -2.410000      0.0000000E+00
  -2.400000      0.0000000E+00
  -2.390000      0.0000000E+00
  -2.380000      0.0000000E+00
  -2.370000      0.0000000E+00
  -2.360000      0.0000000E+00
  -2.350000      0.0000000E+00
  -2.340000      0.0000000E+00
  -2.330000      0.0000000E+00
  -2.320000      0.0000000E+00
  -2.310000      0.0000000E+00
  -2.300000      0.0000000E+00
  -2.290000      0.0000000E+00
  -2.280000      0.0000000E+00
  -2.270000      0.0000000E+00
  -2.260000      0.0000000E+00
  -2.250000      0.0000000E+00
  -2.240000      0.0000000E+00
  -2.230000      0.0000000E+00
  -2.220000      0.0000000E+00
  -2.210000      0.0000000E+00
  -2.200000      0.0000000E+00
  -2.190000      0.0000000E+00
  -2.180000      0.0000000E+00
  -2.170000      0.0000000E+00
  -2.160000      0.0000000E+00
  -2.150000      0.0000000E+00
  -2.140000      0.0000000E+00
  -2.130000      0.0000000E+00
  -2.120000      0.0000000E+00
  -2.110000      0.0000000E+00
  -2.100000      0.0000000E+00
  -2.090000      0.0000000E+00
  -2.080000      0.0000000E+00
  -2.070000      0.0000000E+00
  -2.060000      0.0000000E+00
  -2.050000      0.0000000E+00
  -2.040000      0.0000000E+00
  -2.030000      0.0000000E+00
  -2.020000      0.0000000E+00
  -2.010000      0.0000000E+00
  -2.000000      0.0000000E+00
  -1.990000      0.0000000E+00
  -1.980000      0.0000000E+00
  -1.970000      0.0000000E+00
  -1.960000      0.0000000E+00
  -1.950000      0.0000000E+00
  -1.940000      0.0000000E+00
  -1.930000      0.0000000E+00
  -1.920000      0.0000000E+00
  -1.910000      0.0000000E+00
  -1.900000      0.0000000E+00
  -1.890000      0.0000000E+00
  -1.880000      0.0000000E+00
  -1.870000      0.0000000E+00
  -1.860000      0.0000000E+00
  -1.850000      0.0000000E+00
  -1.840000      0.0000000E+00
  -1.830000      0.0000000E+00
  -1.820000      0.0000000E+00
  -1.810000      0.0000000E+00
  -1.800000      0.0000000E+00
  -1.790000      0.0000000E+00
  -1.780000      0.0000000E+00
  -1.770000      0.0000000E+00
  -1.760000      0.0000000E+00
  -1.750000      0.0000000E+00
  -1.740000      0.0000000E+00
  -1.730000      0.0000000E+00
  -1.720000      0.0000000E+00
  -1.710000      0.0000000E+00
  -1.700000      0.0000000E+00
  -1.690000      0.0000000E+00
  -1.680000      0.0000000E+00
  -1.670000      0.0000000E+00
  -1.660000      0.0000000E+00
  -1.650000      0.0000000E+00
  -1.640000      0.0000000E+00
  -1.630000      0.0000000E+00
  -1.620000      0.0000000E+00
  -1.610000      0.0000000E+00
  -1.600000      0.0000000E+00
  -1.590000      0.0000000E+00
  -1.580000      0.0000000E+00
  -1.570000      0.0000000E+00
  -1.560000      0.0000000E+00
  -1.550000      0.0000000E+00
  -1.540000      0.0000000E+00
  -1.530000      0.0000000E+00
  -1.520000      0.0000000E+00
  -1.510000      0.0000000E+00
  -1.500000      0.0000000E+00
  -1.490000      0.0000000E+00
  -1.480000      0.0000000E+00
  -1.470000      0.0000000E+00
  -1.460000      0.0000000E+00
  -1.450000      0.0000000E+00
  -1.440000      0.0000000E+00
  -1.430000      0.0000000E+00
  -1.420000      0.0000000E+00
  -1.410000      0.0000000E+00
  -1.400000      0.0000000E+00
  -1.390000      0.0000000E+00
  -1.380000      0.0000000E+00
  -1.370000      0.0000000E+00
  -1.360000      0.0000000E+00
  -1.350000      0.0000000E+00
  -1.340000      0.0000000E+00
  -1.330000      0.0000000E+00
  -1.320000      0.0000000E+00
  -1.310000      0.0000000E+00
  -1.300000      0.0000000E+00
  -1.290000      0.0000000E+00
  -1.280000      0.0000000E+00
  -1.270000      0.0000000E+00
  -1.260000      0.0000000E+00
  -1.250000      0.0000000E+00
  -1.240000      0.0000000E+00
  -1.230000      0.0000000E+00
  -1.220000      0.0000000E+00
  -1.210000      0.0000000E+00
  -1.200000      0.0000000E+00
  -1.190000      0.0000000E+00
  -1.180000      0.0000000E+00
  -1.170000      0.0000000E+00
  -1.160000      0.0000000E+00
  -1.150000      0.0000000E+00
  -1.140000      0.0000000E+00
  -1.130000      0.0000000E+00
  -1.120000      0.0000000E+00
  -1.110000      0.0000000E+00
  -1.100000      0.0000000E+00
  -1.090000      0.0000000E+00
  -1.080000      0.0000000E+00
  -1.070000      0.0000000E+00
  -1.060000      0.0000000E+00
  -1.050000      0.0000000E+00
  -1.040000      0.0000000E+00
  -1.030000      0.0000000E+00
  -1.020000      0.0000000E+00
  -1.010000      0.0000000E+00
  -1.000000      0.0000000E+00
 -0.9900000      0.0000000E+00
 -0.9800000      0.0000000E+00
 -0.9700000      0.0000000E+00
 -0.9600000      0.0000000E+00
 -0.9500000      0.0000000E+00
 -0.9400000      0.0000000E+00
 -0.9300000      0.0000000E+00
 -0.9200000      0.0000000E+00
 -0.9100000      0.0000000E+00
 -0.9000000      0.0000000E+00
 -0.8900000      0.0000000E+00
 -0.8800000      0.0000000E+00
 -0.8700000      0.0000000E+00
 -0.8600000      0.0000000E+00
 -0.8500000      0.0000000E+00
 -0.8400000      0.0000000E+00
 -0.8300000      0.0000000E+00
 -0.8200000      0.0000000E+00
 -0.8100000      0.0000000E+00
 -0.8000000      0.0000000E+00
 -0.7900000      0.0000000E+00
 -0.7800000      0.0000000E+00
 -0.7700000      0.0000000E+00
 -0.7600000      0.0000000E+00
 -0.7500000      0.0000000E+00
 -0.7400000      0.0000000E+00
 -0.7300000      0.0000000E+00
 -0.7200000      0.0000000E+00
 -0.7100000      0.0000000E+00
 -0.7000000      0.0000000E+00
 -0.6900000      0.0000000E+00
 -0.6800000      0.0000000E+00
 -0.6700000      0.0000000E+00
 -0.6600000      0.0000000E+00
 -0.6500000      0.0000000E+00
 -0.6400000      0.0000000E+00
 -0.6300000      0.0000000E+00
 -0.6200000      0.0000000E+00
 -0.6100000      0.0000000E+00
 -0.6000000      0.0000000E+00
 -0.5900000      0.0000000E+00
 -0.5800000      0.0000000E+00
 -0.5700000      0.0000000E+00
 -0.5600000      0.0000000E+00
 -0.5500000      0.0000000E+00
 -0.5400000      0.0000000E+00
 -0.5300000      0.0000000E+00
 -0.5200000      0.0000000E+00
 -0.5100000      0.0000000E+00
 -0.5000000      0.0000000E+00
 -0.4900000      0.0000000E+00
 -0.4800000      0.0000000E+00
 -0.4700000      0.0000000E+00
 -0.4600000      0.0000000E+00
 -0.4500000      0.0000000E+00
 -0.4400000      0.0000000E+00
 -0.4300000      0.0000000E+00
 -0.4200000      0.0000000E+00
 -0.4100000      0.0000000E+00
 -0.4000000      0.0000000E+00
 -0.3900000      0.0000000E+00
 -0.3800000      0.0000000E+00
 -0.3700000      0.0000000E+00
 -0.3600000      0.0000000E+00
 -0.3500000      0.0000000E+00
 -0.3400000      0.0000000E+00
 -0.3300000      0.0000000E+00
 -0.3200000      0.0000000E+00
 -0.3100000      0.0000000E+00
 -0.3000000      0.0000000E+00
 -0.2900000      0.0000000E+00
 -0.2800000      0.0000000E+00
 -0.2700000      0.0000000E+00
 -0.2600000      0.0000000E+00
 -0.2500000      0.0000000E+00
 -0.2400000      0.0000000E+00
 -0.2300000      0.0000000E+00
 -0.2200000      0.0000000E+00
 -0.2100000      0.0000000E+00
 -0.2000000      0.0000000E+00
 -0.1900000      0.0000000E+00
 -0.1800000      0.0000000E+00
 -0.1700000      0.0000000E+00
 -0.1600000      0.0000000E+00
 -0.1500000      0.0000000E+00
 -0.1400000      0.0000000E+00
 -0.1300000      0.0000000E+00
 -0.1200000      0.0000000E+00
 -0.1100000      0.0000000E+00
 -0.1000000      0.0000000E+00
 -9.0000004E-02  0.0000000E+00
 -7.9999998E-02  0.0000000E+00
 -7.0000000E-02  0.0000000E+00
 -5.9999999E-02  0.0000000E+00
 -5.0000001E-02  0.0000000E+00
 -3.9999999E-02  0.0000000E+00
 -2.9999999E-02  0.0000000E+00
 -2.0000000E-02  0.0000000E+00
 -9.9999998E-03  0.0000000E+00
 -3.4694470E-17  0.0000000E+00
  9.9999998E-03  0.0000000E+00
  2.0000000E-02  0.0000000E+00
  2.9999999E-02  0.0000000E+00
  3.9999999E-02  0.0000000E+00
  5.0000001E-02  0.0000000E+00
  5.9999999E-02  0.0000000E+00
  7.0000000E-02  0.0000000E+00
  7.9999998E-02  0.0000000E+00
  9.0000004E-02  0.0000000E+00
  0.1000000      0.0000000E+00
  0.1100000      0.0000000E+00
  0.1200000      0.0000000E+00
  0.1300000      0.0000000E+00
  0.1400000      0.0000000E+00
  0.1500000      0.0000000E+00
  0.1600000      0.0000000E+00
  0.1700000      0.0000000E+00
  0.1800000      0.0000000E+00
  0.1900000      0.0000000E+00
  0.2000000      0.0000000E+00
  0.2100000      0.0000000E+00
  0.2200000      0.0000000E+00
  0.2300000      0.0000000E+00
  0.2400000      0.0000000E+00
  0.2500000      0.0000000E+00
  0.2600000      0.0000000E+00
  0.2700000      0.0000000E+00
  0.2800000      0.0000000E+00
  0.2900000      0.0000000E+00
  0.3000000      0.0000000E+00
  0.3100000      0.0000000E+00
  0.3200000      0.0000000E+00
  0.3300000      0.0000000E+00
  0.3400000      0.0000000E+00
  0.3500000      0.0000000E+00
  0.3600000      0.0000000E+00
  0.3700000      0.0000000E+00
  0.3800000      0.0000000E+00
  0.3900000      0.0000000E+00
  0.4000000      0.0000000E+00
  0.4100000      0.0000000E+00
  0.4200000      0.0000000E+00
  0.4300000      0.0000000E+00
  0.4400000      0.0000000E+00
  0.4500000      0.0000000E+00
  0.4600000      0.0000000E+00
  0.4700000      0.0000000E+00
  0.4800000      0.0000000E+00
  0.4900000      0.0000000E+00
  0.5000000      0.0000000E+00
  0.5100000      0.0000000E+00
  0.5200000      0.0000000E+00
  0.5300000      0.0000000E+00
  0.5400000      0.0000000E+00
  0.5500000      0.0000000E+00
  0.5600000      0.0000000E+00
  0.5700000      0.0000000E+00
  0.5800000      0.0000000E+00
  0.5900000      0.0000000E+00
  0.6000000      0.0000000E+00
  0.6100000      0.0000000E+00
  0.6200000      0.0000000E+00
  0.6300000      0.0000000E+00
  0.6400000      0.0000000E+00
  0.6500000      0.0000000E+00
  0.6600000      0.0000000E+00
  0.6700000      0.0000000E+00
  0.6800000      0.0000000E+00
  0.6900000      0.0000000E+00
  0.7000000      0.0000000E+00
  0.7100000      0.0000000E+00
  0.7200000      0.0000000E+00
  0.7300000      0.0000000E+00
  0.7400000      0.0000000E+00
  0.7500000      0.0000000E+00
  0.7600000      0.0000000E+00
  0.7700000      0.0000000E+00
  0.7800000      0.0000000E+00
  0.7900000      0.0000000E+00
  0.8000000      0.0000000E+00
  0.8100000      0.0000000E+00
  0.8200000      0.0000000E+00
  0.8300000      0.0000000E+00
  0.8400000      0.0000000E+00
  0.8500000      0.0000000E+00
  0.8600000      0.0000000E+00
  0.8700000      0.0000000E+00
  0.8800000      0.0000000E+00
  0.8900000      0.0000000E+00
  0.9000000      0.0000000E+00
  0.9100000      0.0000000E+00
  0.9200000      0.0000000E+00
  0.9300000      0.0000000E+00
  0.9400000      0.0000000E+00
  0.9500000      0.0000000E+00
  0.9600000      0.0000000E+00
  0.9700000      0.0000000E+00
  0.9800000      0.0000000E+00
  0.9900000      0.0000000E+00
   1.000000      0.0000000E+00
   1.010000      0.0000000E+00
   1.020000      0.0000000E+00
   1.030000      0.0000000E+00
   1.040000      0.0000000E+00
   1.050000      0.0000000E+00
   1.060000      0.0000000E+00
   1.070000      0.0000000E+00
   1.080000      0.0000000E+00
   1.090000      0.0000000E+00
   1.100000      0.0000000E+00
   1.110000      0.0000000E+00
   1.120000      0.0000000E+00
   1.130000      0.0000000E+00
   1.140000      0.0000000E+00
   1.150000      0.0000000E+00
   1.160000      0.0000000E+00
   1.170000      0.0000000E+00
   1.180000      0.0000000E+00
   1.190000      0.0000000E+00
   1.200000      0.0000000E+00
   1.210000      0.0000000E+00
   1.220000      0.0000000E+00
   1.230000      0.0000000E+00
   1.240000      0.0000000E+00
   1.250000      0.0000000E+00
   1.260000      0.0000000E+00
   1.270000      0.0000000E+00
   1.280000      0.0000000E+00
   1.290000      0.0000000E+00
   1.300000      0.0000000E+00
   1.310000      0.0000000E+00
   1.320000      0.0000000E+00
   1.330000      0.0000000E+00
   1.340000      0.0000000E+00
   1.350000      0.0000000E+00
   1.360000      0.0000000E+00
   1.370000      0.0000000E+00
   1.380000      0.0000000E+00
   1.390000      0.0000000E+00
   1.400000      0.0000000E+00
   1.410000      0.0000000E+00
   1.420000      0.0000000E+00
   1.430000      0.0000000E+00
   1.440000      0.0000000E+00
   1.450000      0.0000000E+00
   1.460000      0.0000000E+00
   1.470000      0.0000000E+00
   1.480000      0.0000000E+00
   1.490000      0.0000000E+00
   1.500000      0.0000000E+00
   1.510000      0.0000000E+00
   1.520000      0.0000000E+00
   1.530000      0.0000000E+00
   1.540000      0.0000000E+00
   1.550000      0.0000000E+00
   1.560000      0.0000000E+00
   1.570000      0.0000000E+00
   1.580000      0.0000000E+00
   1.590000      0.0000000E+00
   1.600000      0.0000000E+00
   1.610000      0.0000000E+00
   1.620000      0.0000000E+00
   1.630000      0.0000000E+00
   1.640000      0.0000000E+00
   1.650000      0.0000000E+00
   1.660000      0.0000000E+00
   1.670000      0.0000000E+00
   1.680000      0.0000000E+00
   1.690000      0.0000000E+00
   1.700000      0.0000000E+00
   1.710000      0.0000000E+00
   1.720000      0.0000000E+00
   1.730000      0.0000000E+00
   1.740000      0.0000000E+00
   1.750000      0.0000000E+00
   1.760000      0.0000000E+00
   1.770000      0.0000000E+00
   1.780000      0.0000000E+00
   1.790000      0.0000000E+00
   1.800000      0.0000000E+00
   1.810000      0.0000000E+00
   1.820000      0.0000000E+00
   1.830000      0.0000000E+00
   1.840000      0.0000000E+00
   1.850000      0.0000000E+00
   1.860000      0.0000000E+00
   1.870000      0.0000000E+00
   1.880000      0.0000000E+00
   1.890000      0.0000000E+00
   1.900000      0.0000000E+00
   1.910000      0.0000000E+00
   1.920000      0.0000000E+00
   1.930000      0.0000000E+00
   1.940000      0.0000000E+00
   1.950000      0.0000000E+00
   1.960000      0.0000000E+00
   1.970000      0.0000000E+00
   1.980000      0.0000000E+00
   1.990000      0.0000000E+00
   2.000000      0.0000000E+00
   2.010000      0.0000000E+00
   2.020000      0.0000000E+00
   2.030000      0.0000000E+00
   2.040000      0.0000000E+00
   2.050000      0.0000000E+00
   2.060000      0.0000000E+00
   2.070000      0.0000000E+00
   2.080000      0.0000000E+00
   2.090000      0.0000000E+00
   2.100000      0.0000000E+00
   2.110000      0.0000000E+00
   2.120000      0.0000000E+00
   2.130000      0.0000000E+00
   2.140000      0.0000000E+00
   2.150000      0.0000000E+00
   2.160000      0.0000000E+00
   2.170000      0.0000000E+00
   2.180000      0.0000000E+00
   2.190000      0.0000000E+00
   2.200000      0.0000000E+00
   2.210000      0.0000000E+00
   2.220000      0.0000000E+00
   2.230000      0.0000000E+00
   2.240000      0.0000000E+00
   2.250000      0.0000000E+00
   2.260000      0.0000000E+00
   2.270000      0.0000000E+00
   2.280000      0.0000000E+00
   2.290000      0.0000000E+00
   2.300000      0.0000000E+00
   2.310000      0.0000000E+00
   2.320000      0.0000000E+00
   2.330000      0.0000000E+00
   2.340000      0.0000000E+00
   2.350000      0.0000000E+00
   2.360000      0.0000000E+00
   2.370000      0.0000000E+00
   2.380000      0.0000000E+00
   2.390000      0.0000000E+00
   2.400000      0.0000000E+00
   2.410000      0.0000000E+00
   2.420000      0.0000000E+00
   2.430000      0.0000000E+00
   2.440000      0.0000000E+00
   2.450000      0.0000000E+00
   2.460000      0.0000000E+00
   2.470000      0.0000000E+00
   2.480000      0.0000000E+00
   2.490000      0.0000000E+00
   2.500000      0.0000000E+00
   2.510000      0.0000000E+00
   2.520000      0.0000000E+00
   2.530000      0.0000000E+00
   2.540000      0.0000000E+00
   2.550000      0.0000000E+00
   2.560000      0.0000000E+00
   2.570000      0.0000000E+00
   2.580000      0.0000000E+00
   2.590000      0.0000000E+00
   2.600000      0.0000000E+00
   2.610000      0.0000000E+00
   2.620000      0.0000000E+00
   2.630000      0.0000000E+00
   2.640000      0.0000000E+00
   2.650000      0.0000000E+00
   2.660000      0.0000000E+00
   2.670000      0.0000000E+00
   2.680000      0.0000000E+00
   2.690000      0.0000000E+00
   2.700000      0.0000000E+00
   2.710000      0.0000000E+00
   2.720000      0.0000000E+00
   2.730000      0.0000000E+00
   2.740000      0.0000000E+00
   2.750000      0.0000000E+00
   2.760000      0.0000000E+00
   2.770000      0.0000000E+00
   2.780000      0.0000000E+00
   2.790000      0.0000000E+00
   2.800000      0.0000000E+00
   2.810000      0.0000000E+00
   2.820000      0.0000000E+00
   2.830000      0.0000000E+00
   2.840000      0.0000000E+00
   2.850000      0.0000000E+00
   2.860000      0.0000000E+00
   2.870000      0.0000000E+00
   2.880000      0.0000000E+00
   2.890000      0.0000000E+00
   2.900000      0.0000000E+00
   2.910000      0.0000000E+00
   2.920000      0.0000000E+00
   2.930000      0.0000000E+00
   2.940000      0.0000000E+00
   2.950000      0.0000000E+00
   2.960000      0.0000000E+00
   2.970000      0.0000000E+00
   2.980000      0.0000000E+00
   2.990000      0.0000000E+00
   3.000000      0.0000000E+00
   3.010000      0.0000000E+00
   3.020000      0.0000000E+00
   3.030000      0.0000000E+00
   3.040000      0.0000000E+00
   3.050000      0.0000000E+00
   3.060000      0.0000000E+00
   3.070000      0.0000000E+00
   3.080000      0.0000000E+00
   3.090000      0.0000000E+00
   3.100000      0.0000000E+00
   3.110000      0.0000000E+00
   3.120000      0.0000000E+00
   3.130000      0.0000000E+00
   3.140000      0.0000000E+00
   3.150000      0.0000000E+00
   3.160000      0.0000000E+00
   3.170000      0.0000000E+00
   3.180000      0.0000000E+00
   3.190000      1.2230473E-38
   3.200000      1.5171830E-38
   3.210000      1.8017785E-38
   3.220000      2.0653556E-38
   3.230000      2.2880596E-38
   3.240000      2.4102953E-38
   3.250000      2.4451148E-38
   3.260000      2.5328733E-38
   3.270000      2.6933270E-38
   3.280000      2.8332613E-38
   3.290000      2.9512612E-38
   3.300000      3.0899214E-38
   3.310000      3.2462029E-38
   3.320000      3.4114690E-38
   3.330000      3.5352692E-38
   3.340000      3.6062099E-38
   3.350000      3.6979465E-38
   3.360000      3.7604559E-38
   3.370000      3.7675549E-38
   3.380000      3.7760854E-38
   3.390000      3.7899333E-38
   3.400000      3.8113502E-38
   3.410000      3.8338369E-38
   3.420000      3.8751028E-38
   3.430000      3.7791391E-38
   3.440000      3.5157651E-38
   3.450000      3.2304901E-38
   3.460000      2.9705563E-38
   3.470000      2.7183800E-38
   3.480000      2.2504357E-38
   3.490000      1.5321894E-38
   3.500000      0.0000000E+00
   3.510000      0.0000000E+00
   3.520000      0.0000000E+00
   3.530000     -1.3090908E-38
   3.540000     -2.3540940E-38
   3.550000     -3.5595927E-38
   3.560000     -4.9226253E-38
   3.570000     -6.3639762E-38
   3.580000     -7.8151099E-38
   3.590000     -9.4943543E-38
   3.600000     -1.1394376E-37
   3.610000     -1.3372709E-37
   3.620000     -1.5240496E-37
   3.630000     -1.6517577E-37
   3.640000     -1.7174187E-37
   3.650000     -1.7381269E-37
   3.660000     -1.7354260E-37
   3.670000     -1.7346082E-37
   3.680000     -1.7538615E-37
   3.690000     -1.8145470E-37
   3.700000     -1.8541607E-37
   3.710000     -1.8607678E-37
   3.720000     -1.8875836E-37
   3.730000     -2.1216094E-37
   3.740000     -2.5694435E-37
   3.750000     -3.0400085E-37
   3.760000     -3.4264081E-37
   3.770000     -3.6705309E-37
   3.780000     -3.7882008E-37
   3.790000     -3.5686908E-37
   3.800000     -3.0962833E-37
   3.810000     -2.6217090E-37
   3.820000     -2.1936819E-37
   3.830000     -1.9375707E-37
   3.840000     -1.8455841E-37
   3.850000     -1.7609775E-37
   3.860000     -1.5396128E-37
   3.870000     -1.1582179E-37
   3.880000     -4.9736729E-38
   3.890000      3.3678266E-38
   3.900000      1.1488307E-37
   3.910000      2.1266088E-37
   3.920000      3.2549672E-37
   3.930000      4.3828688E-37
   3.940000      4.5939173E-37
   3.950000      3.7999708E-37
   3.960000      2.8355660E-37
   3.970000      1.6520520E-37
   3.980000      1.6351560E-38
   3.990000     -1.5207951E-37
   4.000000     -3.1523485E-37
   4.010000     -4.6313121E-37
   4.020000     -3.8096866E-37
   4.030000      3.4449006E-38
   4.040000      6.1875919E-37
   4.050000      1.2862590E-36
   4.060000      1.9716173E-36
   4.070000      2.6421949E-36
   4.080000      3.2538712E-36
   4.090000      3.6384549E-36
   4.100000      3.9144704E-36
   4.110000      4.2542026E-36
   4.120000      4.6020726E-36
   4.130000      4.6914070E-36
   4.140000      4.4117105E-36
   4.150000      3.9741685E-36
   4.160000      3.4648751E-36
   4.170000      2.9048827E-36
   4.180000      2.4030237E-36
   4.190000      2.0587131E-36
   4.200000      2.0012034E-36
   4.210000      2.1844829E-36
   4.220000      2.4081846E-36
   4.230000      2.6515308E-36
   4.240000      2.8806727E-36
   4.250000      3.1711098E-36
   4.260000      3.9577045E-36
   4.270000      5.1584662E-36
   4.280000      6.1763626E-36
   4.290000      7.0376059E-36
   4.300000      7.9433866E-36
   4.310000      8.5905248E-36
   4.320000      8.6926638E-36
   4.330000      8.0112623E-36
   4.340000      6.4310224E-36
   4.350000      4.3592976E-36
   4.360000      2.2520573E-36
   4.370000      3.0587193E-37
   4.380000     -1.4035562E-36
   4.390000     -2.8653672E-36
   4.400000     -4.1045125E-36
   4.410000     -5.0629910E-36
   4.420000     -5.7019408E-36
   4.430000     -5.9681306E-36
   4.440000     -6.0282326E-36
   4.450000     -6.0895838E-36
   4.460000     -6.1512578E-36
   4.470000     -6.5392613E-36
   4.480000     -7.4640053E-36
   4.490000     -8.8357880E-36
   4.500000     -1.0699379E-35
   4.510000     -1.2986998E-35
   4.520000     -1.5887796E-35
   4.530000     -1.9457369E-35
   4.540000     -2.3244686E-35
   4.550000     -2.6845559E-35
   4.560000     -3.0236197E-35
   4.570000     -3.3345784E-35
   4.580000     -3.6374651E-35
   4.590000     -3.8639466E-35
   4.600000     -3.9004639E-35
   4.610000     -3.8352305E-35
   4.620000     -3.7515830E-35
   4.630000     -3.6807839E-35
   4.640000     -3.5686746E-35
   4.650000     -3.4812802E-35
   4.660000     -3.6458109E-35
   4.670000     -4.0459023E-35
   4.680000     -4.5437248E-35
   4.690000     -5.0768924E-35
   4.700000     -5.6889949E-35
   4.710000     -6.3382833E-35
   4.720000     -6.6199681E-35
   4.730000     -6.3599513E-35
   4.740000     -5.8220548E-35
   4.750000     -5.1661880E-35
   4.760000     -4.4283650E-35
   4.770000     -3.1565846E-35
   4.780000     -1.2690678E-35
   4.790000      7.5645766E-36
   4.800000      2.8154223E-35
   4.810000      4.3037681E-35
   4.820000      4.9175371E-35
   4.830000      4.5970089E-35
   4.840000      3.4038454E-35
   4.850000      1.7469887E-35
   4.860000     -2.3208986E-36
   4.870000     -2.1081903E-35
   4.880000     -3.6751372E-35
   4.890000     -5.0224988E-35
   4.900000     -5.6276608E-35
   4.910000     -5.3418320E-35
   4.920000     -4.4155967E-35
   4.930000     -1.4521918E-35
   4.940000      3.6244778E-35
   4.950000      9.6039186E-35
   4.960000      1.6250228E-34
   4.970000      2.2982359E-34
   4.980000      2.9414347E-34
   4.990000      3.5190889E-34
   5.000000      3.9021311E-34
   5.010000      4.0343848E-34
   5.020000      3.9501252E-34
   5.030000      3.6474366E-34
   5.040000      3.1932552E-34
   5.050000      2.6903626E-34
   5.060000      2.2593174E-34
   5.070000      1.9271192E-34
   5.080000      1.6805856E-34
   5.090000      1.6573125E-34
   5.100000      1.9351089E-34
   5.110000      2.4301633E-34
   5.120000      3.0182268E-34
   5.130000      3.6736914E-34
   5.140000      4.3948593E-34
   5.150000      5.0578583E-34
   5.160000      5.5236255E-34
   5.170000      5.6653983E-34
   5.180000      5.5542209E-34
   5.190000      5.2679908E-34
   5.200000      4.7697254E-34
   5.210000      4.1070368E-34
   5.220000      3.4327645E-34
   5.230000      2.8835533E-34
   5.240000      2.3712933E-34
   5.250000      1.9200791E-34
   5.260000      1.6164227E-34
   5.270000      1.4714020E-34
   5.280000      1.4307101E-34
   5.290000      1.4518406E-34
   5.300000      1.5012308E-34
   5.310000      1.5030235E-34
   5.320000      1.3706948E-34
   5.330000      1.0380884E-34
   5.340000      4.9665779E-35
   5.350000     -2.9865133E-35
   5.360000     -1.3769673E-34
   5.370000     -2.7028036E-34
   5.380000     -4.2053962E-34
   5.390000     -5.8337787E-34
   5.400000     -7.5019342E-34
   5.410000     -9.1192932E-34
   5.420000     -1.0642142E-33
   5.430000     -1.2043076E-33
   5.440000     -1.3273684E-33
   5.450000     -1.4340475E-33
   5.460000     -1.5289005E-33
   5.470000     -1.6163521E-33
   5.480000     -1.7016660E-33
   5.490000     -1.7913110E-33
   5.500000     -1.8914218E-33
   5.510000     -2.0058041E-33
   5.520000     -2.1356095E-33
   5.530000     -2.2840599E-33
   5.540000     -2.4508980E-33
   5.550000     -2.6274900E-33
   5.560000     -2.8084301E-33
   5.570000     -2.9861533E-33
   5.580000     -3.1550768E-33
   5.590000     -3.3104966E-33
   5.600000     -3.4462706E-33
   5.610000     -3.5608912E-33
   5.620000     -3.6539786E-33
   5.630000     -3.7271039E-33
   5.640000     -3.7861145E-33
   5.650000     -3.8334292E-33
   5.660000     -3.8709731E-33
   5.670000     -3.9034803E-33
   5.680000     -3.9347517E-33
   5.690000     -3.9669063E-33
   5.700000     -4.0011535E-33
   5.710000     -4.0314662E-33
   5.720000     -4.0476315E-33
   5.730000     -4.0466136E-33
   5.740000     -4.0218033E-33
   5.750000     -3.9635047E-33
   5.760000     -3.8635539E-33
   5.770000     -3.7138341E-33
   5.780000     -3.5117890E-33
   5.790000     -3.2576335E-33
   5.800000     -2.9490749E-33
   5.810000     -2.5874161E-33
   5.820000     -2.1771136E-33
   5.830000     -1.7229597E-33
   5.840000     -1.2294252E-33
   5.850000     -7.0019212E-34
   5.860000     -1.3752671E-34
   5.870000      4.5544336E-34
   5.880000      1.0784700E-33
   5.890000      1.7363260E-33
   5.900000      2.4339428E-33
   5.910000      3.1770879E-33
   5.920000      3.9720193E-33
   5.930000      4.8240532E-33
   5.940000      5.7390286E-33
   5.950000      6.7202454E-33
   5.960000      7.7676740E-33
   5.970000      8.8802816E-33
   5.980000      1.0054517E-32
   5.990000      1.1285028E-32
   6.000000      1.2565354E-32
   6.010000      1.3888532E-32
   6.020000      1.5247782E-32
   6.030000      1.6637636E-32
   6.040000      1.8053934E-32
   6.050000      1.9493734E-32
   6.060000      2.0955764E-32
   6.070000      2.2440139E-32
   6.080000      2.3947468E-32
   6.090000      2.5478420E-32
   6.100000      2.7032923E-32
   6.110000      2.8609349E-32
   6.120000      3.0203901E-32
   6.130000      3.1810352E-32
   6.140000      3.3419933E-32
   6.150000      3.5020965E-32
   6.160000      3.6599881E-32
   6.170000      3.8141400E-32
   6.180000      3.9629373E-32
   6.190000      4.1046999E-32
   6.200000      4.2377741E-32
   6.210000      4.3606638E-32
   6.220000      4.4720157E-32
   6.230000      4.5706136E-32
   6.240000      4.6553452E-32
   6.250000      4.7251934E-32
   6.260000      4.7791745E-32
   6.270000      4.8162713E-32
   6.280000      4.8353546E-32
   6.290000      4.8351550E-32
   6.300000      4.8141498E-32
   6.310000      4.7706066E-32
   6.320000      4.7026219E-32
   6.330000      4.6080727E-32
   6.340000      4.4847084E-32
   6.350000      4.3302056E-32
   6.360000      4.1422426E-32
   6.370000      3.9185718E-32
   6.380000      3.6570737E-32
   6.390000      3.3557975E-32
   6.400000      3.0129851E-32
   6.410000      2.6270665E-32
   6.420000      2.1966344E-32
   6.430000      1.7204046E-32
   6.440000      1.1971642E-32
   6.450000      6.2571895E-33
   6.460000      4.8504008E-35
   6.470000     -6.6671358E-33
   6.480000     -1.3903120E-32
   6.490000     -2.1673359E-32
   6.500000     -2.9991921E-32
   6.510000     -3.8872505E-32
   6.520000     -4.8327691E-32
   6.530000     -5.8368114E-32
   6.540000     -6.9001718E-32
   6.550000     -8.0233008E-32
   6.560000     -9.2062514E-32
   6.570000     -1.0448641E-31
   6.580000     -1.1749637E-31
   6.590000     -1.3107963E-31
   6.600000     -1.4521929E-31
   6.610000     -1.5989455E-31
   6.620000     -1.7508123E-31
   6.630000     -1.9075204E-31
   6.640000     -2.0687697E-31
   6.650000     -2.2342325E-31
   6.660000     -2.4035535E-31
   6.670000     -2.5763472E-31
   6.680000     -2.7521915E-31
   6.690000     -2.9306229E-31
   6.700000     -3.1111275E-31
   6.710000     -3.2931347E-31
   6.720000     -3.4760109E-31
   6.730000     -3.6590532E-31
   6.740000     -3.8414871E-31
   6.750000     -4.0224650E-31
   6.760000     -4.2010663E-31
   6.770000     -4.3763015E-31
   6.780000     -4.5471159E-31
   6.790000     -4.7123942E-31
   6.800000     -4.8709641E-31
   6.810000     -5.0216051E-31
   6.820000     -5.1630472E-31
   6.830000     -5.2939747E-31
   6.840000     -5.4130255E-31
   6.850000     -5.5187908E-31
   6.860000     -5.6098112E-31
   6.870000     -5.6845727E-31
   6.880000     -5.7415061E-31
   6.890000     -5.7789837E-31
   6.900000     -5.7953155E-31
   6.910000     -5.7887520E-31
   6.920000     -5.7574881E-31
   6.930000     -5.6996674E-31
   6.940000     -5.6133885E-31
   6.950000     -5.4967150E-31
   6.960000     -5.3476849E-31
   6.970000     -5.1643261E-31
   6.980000     -4.9446610E-31
   6.990000     -4.6867204E-31
   7.000000     -4.3885521E-31
   7.010000     -4.0482281E-31
   7.020000     -3.6638544E-31
   7.030000     -3.2335757E-31
   7.040000     -2.7555809E-31
   7.050000     -2.2281096E-31
   7.060000     -1.6494591E-31