  -2.600000      0.0000000E+00
  -2.590000      0.0000000E+00
  -2.580000      0.0000000E+00
  -2.570000      0.0000000E+00
  -2.560000      0.0000000E+00
  -2.550000      0.0000000E+00
  -2.540000      0.0000000E+00
  -2.530000      0.0000000E+00
  -2.520000      0.0000000E+00
  -2.510000      0.0000000E+00
  -2.500000      0.0000000E+00
  -2.490000      0.0000000E+00
  -2.480000      0.0000000E+00
  -2.470000      0.0000000E+00
  -2.460000      0.0000000E+00
  -2.450000      0.0000000E+00
  -2.440000      0.0000000E+00
  -2.430000      0.0000000E+00
  -2.420000      0.0000000E+00
  -2.410000      0.0000000E+00
  -2.400000      0.0000000E+00
  -2.390000      0.0000000E+00
  -2.380000      0.0000000E+00
  -2.370000      0.0000000E+00
  -2.360000      0.0000000E+00
  -2.350000      0.0000000E+00
  -2.340000      0.0000000E+00
  -2.330000      0.0000000E+00
  -2.320000      0.0000000E+00
  -2.310000      0.0000000E+00
  -2.300000      0.0000000E+00
  -2.290000      0.0000000E+00
  -2.280000      0.0000000E+00
  -2.270000      0.0000000E+00
  -2.260000      0.0000000E+00
  -2.250000      0.0000000E+00
  -2.240000      0.0000000E+00
  -2.230000      0.0000000E+00
  -2.220000      0.0000000E+00
  -2.210000      0.0000000E+00
  -2.200000      0.0000000E+00
  -2.190000      0.0000000E+00
  -2.180000      0.0000000E+00
  -2.170000      0.0000000E+00
  -2.160000      0.0000000E+00
  -2.150000      0.0000000E+00
  -2.140000      0.0000000E+00
  -2.130000      0.0000000E+00
  -2.120000      0.0000000E+00
  -2.110000      0.0000000E+00
  -2.100000      0.0000000E+00
  -2.090000      0.0000000E+00
  -2.080000      0.0000000E+00
  -2.070000      0.0000000E+00
  -2.060000      0.0000000E+00
  -2.050000      0.0000000E+00
  -2.040000      0.0000000E+00
  -2.030000      0.0000000E+00
  -2.020000      0.0000000E+00
  -2.010000      0.0000000E+00
  -2.000000      0.0000000E+00
  -1.990000      0.0000000E+00
  -1.980000      0.0000000E+00
  -1.970000      0.0000000E+00
  -1.960000      0.0000000E+00
  -1.950000      0.0000000E+00
  -1.940000      0.0000000E+00
  -1.930000      0.0000000E+00
  -1.920000      0.0000000E+00
  -1.910000      0.0000000E+00
  -1.900000      0.0000000E+00
  -1.890000      0.0000000E+00
  -1.880000      0.0000000E+00
  -1.870000      0.0000000E+00
  -1.860000      0.0000000E+00
  -1.850000      0.0000000E+00
  -1.840000      0.0000000E+00
  -1.830000      0.0000000E+00
  -1.820000      0.0000000E+00
  -1.810000      0.0000000E+00
  -1.800000      0.0000000E+00
  -1.790000      0.0000000E+00
  -1.780000      0.0000000E+00
  -1.770000      0.0000000E+00
  -1.760000      0.0000000E+00
  -1.750000      0.0000000E+00
  -1.740000      0.0000000E+00
  -1.730000      0.0000000E+00
  -1.720000      0.0000000E+00
  -1.710000      0.0000000E+00
  -1.700000      0.0000000E+00
  -1.690000      0.0000000E+00
  -1.680000      0.0000000E+00
  -1.670000      0.0000000E+00
  -1.660000      0.0000000E+00
  -1.650000      0.0000000E+00
  -1.640000      0.0000000E+00
  -1.630000      0.0000000E+00
  -1.620000      0.0000000E+00
  -1.610000      0.0000000E+00
  -1.600000      0.0000000E+00
  -1.590000      0.0000000E+00
  -1.580000      0.0000000E+00
  -1.570000      0.0000000E+00
  -1.560000      0.0000000E+00
  -1.550000      0.0000000E+00
  -1.540000      0.0000000E+00
  -1.530000      0.0000000E+00
  -1.520000      0.0000000E+00
  -1.510000      0.0000000E+00
  -1.500000      0.0000000E+00
  -1.490000      0.0000000E+00
  -1.480000      0.0000000E+00
  -1.470000      0.0000000E+00
  -1.460000      0.0000000E+00
  -1.450000      0.0000000E+00
  -1.440000      0.0000000E+00
  -1.430000      0.0000000E+00
  -1.420000      0.0000000E+00
  -1.410000      0.0000000E+00
  -1.400000      0.0000000E+00
  -1.390000      0.0000000E+00
  -1.380000      0.0000000E+00
  -1.370000      0.0000000E+00
  -1.360000      0.0000000E+00
  -1.350000      0.0000000E+00
  -1.340000      0.0000000E+00
  -1.330000      0.0000000E+00
  -1.320000      0.0000000E+00
  -1.310000      0.0000000E+00
  -1.300000      0.0000000E+00
  -1.290000      0.0000000E+00
  -1.280000      0.0000000E+00
  -1.270000      0.0000000E+00
  -1.260000      0.0000000E+00
  -1.250000      0.0000000E+00
  -1.240000      0.0000000E+00
  -1.230000      0.0000000E+00
  -1.220000      0.0000000E+00
  -1.210000      0.0000000E+00
  -1.200000      0.0000000E+00
  -1.190000      0.0000000E+00
  -1.180000      0.0000000E+00
  -1.170000      0.0000000E+00
  -1.160000      0.0000000E+00
  -1.150000      0.0000000E+00
  -1.140000      0.0000000E+00
  -1.130000      0.0000000E+00
  -1.120000      0.0000000E+00
  -1.110000      0.0000000E+00
  -1.100000      0.0000000E+00
  -1.090000      0.0000000E+00
  -1.080000      0.0000000E+00
  -1.070000      0.0000000E+00
  -1.060000      0.0000000E+00
  -1.050000      0.0000000E+00
  -1.040000      0.0000000E+00
  -1.030000      0.0000000E+00
  -1.020000      0.0000000E+00
  -1.010000      0.0000000E+00
  -1.000000      0.0000000E+00
 -0.9900000      0.0000000E+00
 -0.9800000      0.0000000E+00
 -0.9700000      0.0000000E+00
 -0.9600000      0.0000000E+00
 -0.9500000      0.0000000E+00
 -0.9400000      0.0000000E+00
 -0.9300000      0.0000000E+00
 -0.9200000      0.0000000E+00
 -0.9100000      0.0000000E+00
 -0.9000000      0.0000000E+00
 -0.8900000      0.0000000E+00
 -0.8800000      0.0000000E+00
 -0.8700000      0.0000000E+00
 -0.8600000      0.0000000E+00
 -0.8500000      0.0000000E+00
 -0.8400000      0.0000000E+00
 -0.8300000      0.0000000E+00
 -0.8200000      0.0000000E+00
 -0.8100000      0.0000000E+00
 -0.8000000      0.0000000E+00
 -0.7900000      0.0000000E+00
 -0.7800000      0.0000000E+00
 -0.7700000      0.0000000E+00
 -0.7600000      0.0000000E+00
 -0.7500000      0.0000000E+00
 -0.7400000      0.0000000E+00
 -0.7300000      0.0000000E+00
 -0.7200000      0.0000000E+00
 -0.7100000      0.0000000E+00
 -0.7000000      0.0000000E+00
 -0.6900000      0.0000000E+00
 -0.6800000      0.0000000E+00
 -0.6700000      0.0000000E+00
 -0.6600000      0.0000000E+00
 -0.6500000      0.0000000E+00
 -0.6400000      0.0000000E+00
 -0.6300000      0.0000000E+00
 -0.6200000      0.0000000E+00
 -0.6100000      0.0000000E+00
 -0.6000000      0.0000000E+00
 -0.5900000      0.0000000E+00
 -0.5800000      0.0000000E+00
 -0.5700000      0.0000000E+00
 -0.5600000      0.0000000E+00
 -0.5500000      0.0000000E+00
 -0.5400000      0.0000000E+00
 -0.5300000      0.0000000E+00
 -0.5200000      0.0000000E+00
 -0.5100000      0.0000000E+00
 -0.5000000      0.0000000E+00
 -0.4900000      0.0000000E+00
 -0.4800000      0.0000000E+00
 -0.4700000      0.0000000E+00
 -0.4600000      0.0000000E+00
 -0.4500000      0.0000000E+00
 -0.4400000      0.0000000E+00
 -0.4300000      0.0000000E+00
 -0.4200000      0.0000000E+00
 -0.4100000      0.0000000E+00
 -0.4000000      0.0000000E+00
 -0.3900000      0.0000000E+00
 -0.3800000      0.0000000E+00
 -0.3700000      0.0000000E+00
 -0.3600000      0.0000000E+00
 -0.3500000      0.0000000E+00
 -0.3400000      0.0000000E+00
 -0.3300000      0.0000000E+00
 -0.3200000      0.0000000E+00
 -0.3100000      0.0000000E+00
 -0.3000000      0.0000000E+00
 -0.2900000      0.0000000E+00
 -0.2800000      0.0000000E+00
 -0.2700000      0.0000000E+00
 -0.2600000      0.0000000E+00
 -0.2500000      0.0000000E+00
 -0.2400000      0.0000000E+00
 -0.2300000      0.0000000E+00
 -0.2200000      0.0000000E+00
 -0.2100000      0.0000000E+00
 -0.2000000      0.0000000E+00
 -0.1900000      0.0000000E+00
 -0.1800000      0.0000000E+00
 -0.1700000      0.0000000E+00
 -0.1600000      0.0000000E+00
 -0.1500000      0.0000000E+00
 -0.1400000      0.0000000E+00
 -0.1300000      0.0000000E+00
 -0.1200000      0.0000000E+00
 -0.1100000      0.0000000E+00
 -0.1000000      0.0000000E+00
 -9.0000004E-02  0.0000000E+00
 -7.9999998E-02  0.0000000E+00
 -7.0000000E-02  0.0000000E+00
 -5.9999999E-02  0.0000000E+00
 -5.0000001E-02  0.0000000E+00
 -3.9999999E-02  0.0000000E+00
 -2.9999999E-02  0.0000000E+00
 -2.0000000E-02  0.0000000E+00
 -9.9999998E-03  0.0000000E+00
 -3.4694470E-17  0.0000000E+00
  9.9999998E-03  0.0000000E+00
  2.0000000E-02  0.0000000E+00
  2.9999999E-02  0.0000000E+00
  3.9999999E-02  0.0000000E+00
  5.0000001E-02  0.0000000E+00
  5.9999999E-02  0.0000000E+00
  7.0000000E-02  0.0000000E+00
  7.9999998E-02  0.0000000E+00
  9.0000004E-02  0.0000000E+00
  0.1000000      0.0000000E+00
  0.1100000      0.0000000E+00
  0.1200000      0.0000000E+00
  0.1300000      0.0000000E+00
  0.1400000      0.0000000E+00
  0.1500000      0.0000000E+00
  0.1600000      0.0000000E+00
  0.1700000      0.0000000E+00
  0.1800000      0.0000000E+00
  0.1900000      0.0000000E+00
  0.2000000      0.0000000E+00
  0.2100000      0.0000000E+00
  0.2200000      0.0000000E+00
  0.2300000      0.0000000E+00
  0.2400000      0.0000000E+00
  0.2500000      0.0000000E+00
  0.2600000      0.0000000E+00
  0.2700000      0.0000000E+00
  0.2800000      0.0000000E+00
  0.2900000      0.0000000E+00
  0.3000000      0.0000000E+00
  0.3100000      0.0000000E+00
  0.3200000      0.0000000E+00
  0.3300000      0.0000000E+00
  0.3400000      0.0000000E+00
  0.3500000      0.0000000E+00
  0.3600000      0.0000000E+00
  0.3700000      0.0000000E+00
  0.3800000      0.0000000E+00
  0.3900000      0.0000000E+00
  0.4000000      0.0000000E+00
  0.4100000      0.0000000E+00
  0.4200000      0.0000000E+00
  0.4300000      0.0000000E+00
  0.4400000      0.0000000E+00
  0.4500000      0.0000000E+00
  0.4600000      0.0000000E+00
  0.4700000      0.0000000E+00
  0.4800000      0.0000000E+00
  0.4900000      0.0000000E+00
  0.5000000      0.0000000E+00
  0.5100000      0.0000000E+00
  0.5200000      0.0000000E+00
  0.5300000      0.0000000E+00
  0.5400000      0.0000000E+00
  0.5500000      0.0000000E+00
  0.5600000      0.0000000E+00
  0.5700000      0.0000000E+00
  0.5800000      0.0000000E+00
  0.5900000      0.0000000E+00
  0.6000000      0.0000000E+00
  0.6100000      0.0000000E+00
  0.6200000      0.0000000E+00
  0.6300000      0.0000000E+00
  0.6400000      0.0000000E+00
  0.6500000      0.0000000E+00
  0.6600000      0.0000000E+00
  0.6700000      0.0000000E+00
  0.6800000      0.0000000E+00
  0.6900000      0.0000000E+00
  0.7000000      0.0000000E+00
  0.7100000      0.0000000E+00
  0.7200000      0.0000000E+00
  0.7300000      0.0000000E+00
  0.7400000      0.0000000E+00
  0.7500000      0.0000000E+00
  0.7600000      0.0000000E+00
  0.7700000      0.0000000E+00
  0.7800000      0.0000000E+00
  0.7900000      0.0000000E+00
  0.8000000      0.0000000E+00
  0.8100000      0.0000000E+00
  0.8200000      0.0000000E+00
  0.8300000      0.0000000E+00
  0.8400000      0.0000000E+00
  0.8500000      0.0000000E+00
  0.8600000      0.0000000E+00
  0.8700000      0.0000000E+00
  0.8800000      0.0000000E+00
  0.8900000      0.0000000E+00
  0.9000000      0.0000000E+00
  0.9100000      0.0000000E+00
  0.9200000      0.0000000E+00
  0.9300000      0.0000000E+00
  0.9400000      0.0000000E+00
  0.9500000      0.0000000E+00
  0.9600000      0.0000000E+00
  0.9700000      0.0000000E+00
  0.9800000      0.0000000E+00
  0.9900000      0.0000000E+00
   1.000000      0.0000000E+00
   1.010000      0.0000000E+00
   1.020000      0.0000000E+00
   1.030000      0.0000000E+00
   1.040000      0.0000000E+00
   1.050000      0.0000000E+00
   1.060000      0.0000000E+00
   1.070000      0.0000000E+00
   1.080000      0.0000000E+00
   1.090000      0.0000000E+00
   1.100000      0.0000000E+00
   1.110000      0.0000000E+00
   1.120000      0.0000000E+00
   1.130000      0.0000000E+00
   1.140000      0.0000000E+00
   1.150000      0.0000000E+00
   1.160000      0.0000000E+00
   1.170000      0.0000000E+00
   1.180000      0.0000000E+00
   1.190000      0.0000000E+00
   1.200000      0.0000000E+00
   1.210000      0.0000000E+00
   1.220000      0.0000000E+00
   1.230000      0.0000000E+00
   1.240000      0.0000000E+00
   1.250000      0.0000000E+00
   1.260000      0.0000000E+00
   1.270000      0.0000000E+00
   1.280000      0.0000000E+00
   1.290000      0.0000000E+00
   1.300000      0.0000000E+00
   1.310000      0.0000000E+00
   1.320000      0.0000000E+00
   1.330000      0.0000000E+00
   1.340000      0.0000000E+00
   1.350000      0.0000000E+00
   1.360000      0.0000000E+00
   1.370000      0.0000000E+00
   1.380000      0.0000000E+00
   1.390000      0.0000000E+00
   1.400000      0.0000000E+00
   1.410000      0.0000000E+00
   1.420000      0.0000000E+00
   1.430000      0.0000000E+00
   1.440000      0.0000000E+00
   1.450000      0.0000000E+00
   1.460000      0.0000000E+00
   1.470000      0.0000000E+00
   1.480000      0.0000000E+00
   1.490000      0.0000000E+00
   1.500000      0.0000000E+00
   1.510000      0.0000000E+00
   1.520000      0.0000000E+00
   1.530000      0.0000000E+00
   1.540000      0.0000000E+00
   1.550000      0.0000000E+00
   1.560000      0.0000000E+00
   1.570000      0.0000000E+00
   1.580000      0.0000000E+00
   1.590000      0.0000000E+00
   1.600000      0.0000000E+00
   1.610000      0.0000000E+00
   1.620000      0.0000000E+00
   1.630000      0.0000000E+00
   1.640000      0.0000000E+00
   1.650000      0.0000000E+00
   1.660000      0.0000000E+00
   1.670000      0.0000000E+00
   1.680000      0.0000000E+00
   1.690000      0.0000000E+00
   1.700000      0.0000000E+00
   1.710000      0.0000000E+00
   1.720000      0.0000000E+00
   1.730000      0.0000000E+00
   1.740000      0.0000000E+00
   1.750000      0.0000000E+00
   1.760000      0.0000000E+00
   1.770000      0.0000000E+00
   1.780000      0.0000000E+00
   1.790000      0.0000000E+00
   1.800000      0.0000000E+00
   1.810000      0.0000000E+00
   1.820000      0.0000000E+00
   1.830000      0.0000000E+00
   1.840000      0.0000000E+00
   1.850000      0.0000000E+00
   1.860000      0.0000000E+00
   1.870000      0.0000000E+00
   1.880000      0.0000000E+00
   1.890000      0.0000000E+00
   1.900000      0.0000000E+00
   1.910000      0.0000000E+00
   1.920000      0.0000000E+00
   1.930000      0.0000000E+00
   1.940000      0.0000000E+00
   1.950000      0.0000000E+00
   1.960000      0.0000000E+00
   1.970000      0.0000000E+00
   1.980000      0.0000000E+00
   1.990000      0.0000000E+00
   2.000000      0.0000000E+00
   2.010000      0.0000000E+00
   2.020000      0.0000000E+00
   2.030000      0.0000000E+00
   2.040000      0.0000000E+00
   2.050000      0.0000000E+00
   2.060000      0.0000000E+00
   2.070000      0.0000000E+00
   2.080000      0.0000000E+00
   2.090000      0.0000000E+00
   2.100000      0.0000000E+00
   2.110000      0.0000000E+00
   2.120000      0.0000000E+00
   2.130000      0.0000000E+00
   2.140000      0.0000000E+00
   2.150000      0.0000000E+00
   2.160000      0.0000000E+00
   2.170000      0.0000000E+00
   2.180000      0.0000000E+00
   2.190000      0.0000000E+00
   2.200000      0.0000000E+00
   2.210000      0.0000000E+00
   2.220000      0.0000000E+00
   2.230000      0.0000000E+00
   2.240000      0.0000000E+00
   2.250000      0.0000000E+00
   2.260000      0.0000000E+00
   2.270000      0.0000000E+00
   2.280000      0.0000000E+00
   2.290000      0.0000000E+00
   2.300000      0.0000000E+00
   2.310000      0.0000000E+00
   2.320000      0.0000000E+00
   2.330000      0.0000000E+00
   2.340000      0.0000000E+00
   2.350000      0.0000000E+00
   2.360000      0.0000000E+00
   2.370000      0.0000000E+00
   2.380000      0.0000000E+00
   2.390000      0.0000000E+00
   2.400000      0.0000000E+00
   2.410000      0.0000000E+00
   2.420000      0.0000000E+00
   2.430000      0.0000000E+00
   2.440000      0.0000000E+00
   2.450000      0.0000000E+00
   2.460000      0.0000000E+00
   2.470000      0.0000000E+00
   2.480000      0.0000000E+00
   2.490000      0.0000000E+00
   2.500000      0.0000000E+00
   2.510000      0.0000000E+00
   2.520000      0.0000000E+00
   2.530000      0.0000000E+00
   2.540000      0.0000000E+00
   2.550000      0.0000000E+00
   2.560000      0.0000000E+00
   2.570000      0.0000000E+00
   2.580000      0.0000000E+00
   2.590000      0.0000000E+00
   2.600000      0.0000000E+00
   2.610000      0.0000000E+00
   2.620000      0.0000000E+00
   2.630000      0.0000000E+00
   2.640000      0.0000000E+00
   2.650000      0.0000000E+00
   2.660000      0.0000000E+00
   2.670000      0.0000000E+00
   2.680000      0.0000000E+00
   2.690000      0.0000000E+00
   2.700000      0.0000000E+00
   2.710000      0.0000000E+00
   2.720000      0.0000000E+00
   2.730000      0.0000000E+00
   2.740000      0.0000000E+00
   2.750000      0.0000000E+00
   2.760000      0.0000000E+00
   2.770000      0.0000000E+00
   2.780000      0.0000000E+00
   2.790000      0.0000000E+00
   2.800000      0.0000000E+00
   2.810000      0.0000000E+00
   2.820000      0.0000000E+00
   2.830000      0.0000000E+00
   2.840000      0.0000000E+00
   2.850000      0.0000000E+00
   2.860000      0.0000000E+00
   2.870000      0.0000000E+00
   2.880000      0.0000000E+00
   2.890000      0.0000000E+00
   2.900000      0.0000000E+00
   2.910000      0.0000000E+00
   2.920000      0.0000000E+00
   2.930000      0.0000000E+00
   2.940000      0.0000000E+00
   2.950000      0.0000000E+00
   2.960000      0.0000000E+00
   2.970000      0.0000000E+00
   2.980000      0.0000000E+00
   2.990000      0.0000000E+00
   3.000000      0.0000000E+00
   3.010000      0.0000000E+00
   3.020000      0.0000000E+00
   3.030000      0.0000000E+00
   3.040000      0.0000000E+00
   3.050000      0.0000000E+00
   3.060000      0.0000000E+00
   3.070000      0.0000000E+00
   3.080000      0.0000000E+00
   3.090000      0.0000000E+00
   3.100000      0.0000000E+00
   3.110000      0.0000000E+00
   3.120000      0.0000000E+00
   3.130000      0.0000000E+00
   3.140000      0.0000000E+00
   3.150000      0.0000000E+00
   3.160000      0.0000000E+00
   3.170000      0.0000000E+00
   3.180000      0.0000000E+00
   3.190000      0.0000000E+00
   3.200000      0.0000000E+00
   3.210000      0.0000000E+00
   3.220000      0.0000000E+00
   3.230000      0.0000000E+00
   3.240000      0.0000000E+00
   3.250000      0.0000000E+00
   3.260000      0.0000000E+00
   3.270000      0.0000000E+00
   3.280000      0.0000000E+00
   3.290000      0.0000000E+00
   3.300000     -1.3660317E-38
   3.310000     -1.5790595E-38
   3.320000     -1.7768253E-38
   3.330000     -1.9604743E-38
   3.340000     -2.1447586E-38
   3.350000     -2.3328912E-38
   3.360000     -2.5258646E-38
   3.370000     -2.7697581E-38
   3.380000     -3.0812432E-38
   3.390000     -3.4225681E-38
   3.400000     -3.7856302E-38
   3.410000     -4.1687461E-38
   3.420000     -4.5698408E-38
   3.430000     -4.9688042E-38
   3.440000     -5.3304200E-38
   3.450000     -5.6441617E-38
   3.460000     -5.8987328E-38
   3.470000     -6.0753301E-38
   3.480000     -6.1994246E-38
   3.490000     -6.3209334E-38
   3.500000     -6.4366874E-38
   3.510000     -6.5277807E-38
   3.520000     -6.6441249E-38
   3.530000     -6.8064530E-38
   3.540000     -6.9711039E-38
   3.550000     -7.1729296E-38
   3.560000     -7.3824226E-38
   3.570000     -7.4603090E-38
   3.580000     -7.4130180E-38
   3.590000     -7.2840839E-38
   3.600000     -7.0408533E-38
   3.610000     -6.6340832E-38
   3.620000     -6.0801236E-38
   3.630000     -5.4184445E-38
   3.640000     -4.4702758E-38
   3.650000     -3.1293397E-38
   3.660000     -1.5102086E-38
   3.670000      0.0000000E+00
   3.680000      2.3690991E-38
   3.690000      4.7481911E-38
   3.700000      7.0936088E-38
   3.710000      9.4040736E-38
   3.720000      1.1819372E-37
   3.730000      1.4262779E-37
   3.740000      1.6609086E-37
   3.750000      1.8929267E-37
   3.760000      2.1215262E-37
   3.770000      2.3425767E-37
   3.780000      2.6187347E-37
   3.790000      2.9584345E-37
   3.800000      3.3366315E-37
   3.810000      3.7556891E-37
   3.820000      4.1953777E-37
   3.830000      4.6592874E-37
   3.840000      5.2217551E-37
   3.850000      5.9120876E-37
   3.860000      6.6246445E-37
   3.870000      7.3260009E-37
   3.880000      7.8795188E-37
   3.890000      8.2344387E-37
   3.900000      8.5254335E-37
   3.910000      8.7492054E-37
   3.920000      8.8571085E-37
   3.930000      8.8627576E-37
   3.940000      8.7777372E-37
   3.950000      8.6251441E-37
   3.960000      8.3844866E-37
   3.970000      7.9757084E-37
   3.980000      7.4341960E-37
   3.990000      6.7576168E-37
   4.000000      5.9243375E-37
   4.010000      4.9278972E-37
   4.020000      3.8662147E-37
   4.030000      2.3509127E-37
   4.040000      2.4468367E-38
   4.050000     -1.9559358E-37
   4.060000     -4.1540755E-37
   4.070000     -6.4760831E-37
   4.080000     -9.0219810E-37
   4.090000     -1.2279302E-36
   4.100000     -1.6192654E-36
   4.110000     -2.0305761E-36
   4.120000     -2.4728377E-36
   4.130000     -2.8504176E-36
   4.140000     -3.1569643E-36
   4.150000     -3.4673360E-36
   4.160000     -3.7634082E-36
   4.170000     -4.0342508E-36
   4.180000     -4.2656827E-36
   4.190000     -4.4362923E-36
   4.200000     -4.5503685E-36
   4.210000     -4.6306384E-36
   4.220000     -4.7065426E-36
   4.230000     -4.7541923E-36
   4.240000     -4.7651498E-36
   4.250000     -4.7677506E-36
   4.260000     -4.7576175E-36
   4.270000     -4.6460535E-36
   4.280000     -4.4364196E-36
   4.290000     -4.1890740E-36
   4.300000     -3.9237200E-36
   4.310000     -3.7144022E-36
   4.320000     -3.6173421E-36
   4.330000     -3.5890445E-36
   4.340000     -3.4845056E-36
   4.350000     -3.2642364E-36
   4.360000     -3.0311109E-36
   4.370000     -2.8253757E-36
   4.380000     -2.5826932E-36
   4.390000     -2.2911100E-36
   4.400000     -1.8961298E-36
   4.410000     -1.3564018E-36
   4.420000     -7.0700781E-37
   4.430000      6.7072546E-38
   4.440000      9.4550751E-37
   4.450000      1.9030345E-36
   4.460000      2.9815144E-36
   4.470000      4.1830634E-36
   4.480000      5.4708217E-36
   4.490000      6.8451223E-36
   4.500000      8.3419627E-36
   4.510000      9.9695653E-36
   4.520000      1.1686338E-35
   4.530000      1.3460241E-35
   4.540000      1.5233422E-35
   4.550000      1.7068372E-35
   4.560000      1.9015363E-35
   4.570000      2.1074476E-35
   4.580000      2.3305417E-35
   4.590000      2.5467702E-35
   4.600000      2.7473986E-35
   4.610000      2.9396063E-35
   4.620000      3.1215138E-35
   4.630000      3.3020796E-35
   4.640000      3.4552807E-35
   4.650000      3.5830830E-35
   4.660000      3.7459969E-35
   4.670000      3.8913527E-35
   4.680000      3.9731095E-35
   4.690000      4.0314417E-35
   4.700000      4.0726945E-35
   4.710000      4.0933362E-35
   4.720000      4.0665774E-35
   4.730000      4.0780502E-35
   4.740000      4.1838252E-35
   4.750000      4.3141862E-35
   4.760000      4.3266104E-35
   4.770000      4.2295980E-35
   4.780000      4.1490029E-35
   4.790000      4.0621741E-35
   4.800000      3.6967713E-35
   4.810000      2.9793757E-35
   4.820000      2.1661359E-35
   4.830000      1.3083056E-35
   4.840000      5.0126712E-36
   4.850000     -1.2357555E-36
   4.860000     -6.5861383E-36
   4.870000     -1.2141331E-35
   4.880000     -1.8117675E-35
   4.890000     -2.2440526E-35
   4.900000     -2.5117442E-35
   4.910000     -2.8435739E-35
   4.920000     -3.4691272E-35
   4.930000     -4.5228003E-35
   4.940000     -5.7602851E-35
   4.950000     -7.1286242E-35
   4.960000     -8.9892745E-35
   4.970000     -1.1520357E-34
   4.980000     -1.4387429E-34
   4.990000     -1.7133527E-34
   5.000000     -1.9663782E-34
   5.010000     -2.2166655E-34
   5.020000     -2.4400234E-34
   5.030000     -2.6281420E-34
   5.040000     -2.7959191E-34
   5.050000     -2.9354601E-34
   5.060000     -3.0485080E-34
   5.070000     -3.1292123E-34
   5.080000     -3.1922980E-34
   5.090000     -3.2656273E-34
   5.100000     -3.3505951E-34
   5.110000     -3.4211643E-34
   5.120000     -3.4690960E-34
   5.130000     -3.5335994E-34
   5.140000     -3.6124365E-34
   5.150000     -3.6951679E-34
   5.160000     -3.7513519E-34
   5.170000     -3.7545276E-34
   5.180000     -3.7349457E-34
   5.190000     -3.6892009E-34
   5.200000     -3.6171405E-34
   5.210000     -3.5215370E-34
   5.220000     -3.3928149E-34
   5.230000     -3.2354506E-34
   5.240000     -3.0854314E-34
   5.250000     -2.9348322E-34
   5.260000     -2.7528948E-34
   5.270000     -2.5669934E-34
   5.280000     -2.3582214E-34
   5.290000     -2.0935812E-34
   5.300000     -1.7703777E-34
   5.310000     -1.3857299E-34
   5.320000     -9.3868114E-35
   5.330000     -4.1894237E-35
   5.340000      1.7664875E-35
   5.350000      8.4380308E-35
   5.360000      1.5562146E-34
   5.370000      2.3404278E-34
   5.380000      3.2456503E-34
   5.390000      4.2782071E-34
   5.400000      5.3857372E-34
   5.410000      6.5156146E-34
   5.420000      7.6995973E-34
   5.430000      8.9517017E-34
   5.440000      1.0240789E-33
   5.450000      1.1549844E-33
   5.460000      1.2886940E-33
   5.470000      1.4248659E-33
   5.480000      1.5628122E-33
   5.490000      1.7020440E-33
   5.500000      1.8417385E-33
   5.510000      1.9830658E-33
   5.520000      2.1241855E-33
   5.530000      2.2618302E-33
   5.540000      2.3983573E-33
   5.550000      2.5347752E-33
   5.560000      2.6688291E-33
   5.570000      2.7999939E-33
   5.580000      2.9268693E-33
   5.590000      3.0535661E-33
   5.600000      3.1792053E-33
   5.610000      3.2984967E-33
   5.620000      3.4115906E-33
   5.630000      3.5172811E-33
   5.640000      3.6154588E-33
   5.650000      3.7053158E-33
   5.660000      3.7857229E-33
   5.670000      3.8546822E-33
   5.680000      3.9110717E-33
   5.690000      3.9538675E-33
   5.700000      3.9792005E-33
   5.710000      3.9844652E-33
   5.720000      3.9683697E-33
   5.730000      3.9282152E-33
   5.740000      3.8614604E-33
   5.750000      3.7663530E-33
   5.760000      3.6402147E-33
   5.770000      3.4803306E-33
   5.780000      3.2847566E-33
   5.790000      3.0510222E-33
   5.800000      2.7777901E-33
   5.810000      2.4643763E-33
   5.820000      2.1086648E-33
   5.830000      1.7092647E-33
   5.840000      1.2655993E-33
   5.850000      7.7674417E-34
   5.860000      2.4208959E-34
   5.870000     -3.3879494E-34
   5.880000     -9.6639622E-34
   5.890000     -1.6411058E-33
   5.900000     -2.3631025E-33
   5.910000     -3.1326664E-33
   5.920000     -3.9502991E-33
   5.930000     -4.8157072E-33
   5.940000     -5.7285267E-33
   5.950000     -6.6889897E-33
   5.960000     -7.6969526E-33
   5.970000     -8.7520572E-33
   5.980000     -9.8540802E-33
   5.990000     -1.1002084E-32
   6.000000     -1.2195099E-32
   6.010000     -1.3432264E-32
   6.020000     -1.4712242E-32
   6.030000     -1.6033340E-32
   6.040000     -1.7393274E-32
   6.050000     -1.8789700E-32
   6.060000     -2.0219647E-32
   6.070000     -2.1679711E-32
   6.080000     -2.3166123E-32
   6.090000     -2.4673770E-32
   6.100000     -2.6196970E-32
   6.110000     -2.7729759E-32
   6.120000     -2.9265184E-32
   6.130000     -3.0794893E-32
   6.140000     -3.2311037E-32
   6.150000     -3.3804996E-32
   6.160000     -3.5266162E-32
   6.170000     -3.6683884E-32
   6.180000     -3.8046894E-32
   6.190000     -3.9343332E-32
   6.200000     -4.0560818E-32
   6.210000     -4.1686506E-32
   6.220000     -4.2707129E-32
   6.230000     -4.3609054E-32
   6.240000     -4.4378297E-32
   6.250000     -4.5000666E-32
   6.260000     -4.5461498E-32
   6.270000     -4.5745847E-32
   6.280000     -4.5838658E-32
   6.290000     -4.5724532E-32
   6.300000     -4.5387809E-32
   6.310000     -4.4812545E-32
   6.320000     -4.3982567E-32
   6.330000     -4.2881458E-32
   6.340000     -4.1492573E-32
   6.350000     -3.9799041E-32
   6.360000     -3.7783839E-32
   6.370000     -3.5429826E-32
   6.380000     -3.2719756E-32
   6.390000     -2.9636337E-32
   6.400000     -2.6162296E-32
   6.410000     -2.2280455E-32
   6.420000     -1.7973824E-32
   6.430000     -1.3225743E-32
   6.440000     -8.0199182E-33
   6.450000     -2.3405466E-33
   6.460000      3.8274779E-33
   6.470000      1.0498403E-32
   6.480000      1.7685449E-32
   6.490000      2.5400631E-32
   6.500000      3.3654527E-32
   6.510000      4.2456052E-32
   6.520000      5.1812259E-32
   6.530000      6.1728094E-32
   6.540000      7.2206251E-32
   6.550000      8.3246794E-32
   6.560000      9.4847066E-32
   6.570000      1.0700156E-31
   6.580000      1.1970152E-31
   6.590000      1.3293509E-31
   6.600000      1.4668700E-31
   6.610000      1.6093817E-31
   6.620000      1.7566588E-31
   6.630000      1.9084359E-31
   6.640000      2.0644074E-31
   6.650000      2.2242264E-31
   6.660000      2.3875038E-31
   6.670000      2.5538059E-31
   6.680000      2.7226544E-31
   6.690000      2.8935245E-31
   6.700000      3.0658428E-31
   6.710000      3.2389875E-31
   6.720000      3.4122859E-31
   6.730000      3.5850128E-31
   6.740000      3.7563907E-31
   6.750000      3.9255871E-31
   6.760000      4.0917139E-31
   6.770000      4.2538268E-31
   6.780000      4.4109231E-31
   6.790000      4.5619422E-31
   6.800000      4.7057653E-31
   6.810000      4.8412133E-31
   6.820000      4.9670471E-31
   6.830000      5.0819705E-31
   6.840000      5.1846260E-31
   6.850000      5.2735987E-31
   6.860000      5.3474169E-31
   6.870000      5.4045520E-31
   6.880000      5.4434238E-31
   6.890000      5.4623995E-31
   6.900000      5.4598003E-31
   6.910000      5.4339018E-31
   6.920000      5.3829403E-31
   6.930000      5.3051160E-31
   6.940000      5.1986007E-31
   6.950000      5.0615418E-31
   6.960000      4.8920689E-31
   6.970000      4.6883012E-31
   6.980000      4.4483542E-31
   6.990000      4.1703488E-31
   7.000000      3.8524192E-31
   7.010000      3.4927198E-31
   7.020000      3.0894373E-31
   7.030000      2.6407986E-31
   7.040000      2.1450814E-31
   7.050000      1.6006246E-31
   7.060000      1.0058397E-31