  -2.600000      0.0000000E+00
  -2.590000      0.0000000E+00
  -2.580000      0.0000000E+00
  -2.570000      0.0000000E+00
  -2.560000      0.0000000E+00
  -2.550000      0.0000000E+00
  -2.540000      0.0000000E+00
  -2.530000      0.0000000E+00
  -2.520000      0.0000000E+00
  -2.510000      0.0000000E+00
  -2.500000      0.0000000E+00
  -2.490000      0.0000000E+00
  -2.480000      0.0000000E+00
  -2.470000      0.0000000E+00
  -2.460000      0.0000000E+00
  -2.450000      0.0000000E+00
  -2.440000      0.0000000E+00
  -2.430000      0.0000000E+00
  -2.420000      0.0000000E+00
  -2.410000      0.0000000E+00
  -2.400000      0.0000000E+00
  -2.390000      0.0000000E+00
  -2.380000      0.0000000E+00
  -2.370000      0.0000000E+00
  -2.360000      0.0000000E+00
  -2.350000      0.0000000E+00
  -2.340000      0.0000000E+00
  -2.330000      0.0000000E+00
  -2.320000      0.0000000E+00
  -2.310000      0.0000000E+00
  -2.300000      0.0000000E+00
  -2.290000      0.0000000E+00
  -2.280000      0.0000000E+00
  -2.270000      0.0000000E+00
  -2.260000      0.0000000E+00
  -2.250000      0.0000000E+00
  -2.240000      0.0000000E+00
  -2.230000      0.0000000E+00
  -2.220000      0.0000000E+00
  -2.210000      0.0000000E+00
  -2.200000      0.0000000E+00
  -2.190000      0.0000000E+00
  -2.180000      0.0000000E+00
  -2.170000      0.0000000E+00
  -2.160000      0.0000000E+00
  -2.150000      0.0000000E+00
  -2.140000      0.0000000E+00
  -2.130000      0.0000000E+00
  -2.120000      0.0000000E+00
  -2.110000      0.0000000E+00
  -2.100000      0.0000000E+00
  -2.090000      0.0000000E+00
  -2.080000      0.0000000E+00
  -2.070000      0.0000000E+00
  -2.060000      0.0000000E+00
  -2.050000      0.0000000E+00
  -2.040000      0.0000000E+00
  -2.030000      0.0000000E+00
  -2.020000      0.0000000E+00
  -2.010000      0.0000000E+00
  -2.000000      0.0000000E+00
  -1.990000      0.0000000E+00
  -1.980000      0.0000000E+00
  -1.970000      0.0000000E+00
  -1.960000      0.0000000E+00
  -1.950000      0.0000000E+00
  -1.940000      0.0000000E+00
  -1.930000      0.0000000E+00
  -1.920000      0.0000000E+00
  -1.910000      0.0000000E+00
  -1.900000      0.0000000E+00
  -1.890000      0.0000000E+00
  -1.880000      0.0000000E+00
  -1.870000      0.0000000E+00
  -1.860000      0.0000000E+00
  -1.850000      0.0000000E+00
  -1.840000      0.0000000E+00
  -1.830000      0.0000000E+00
  -1.820000      0.0000000E+00
  -1.810000      0.0000000E+00
  -1.800000      0.0000000E+00
  -1.790000      0.0000000E+00
  -1.780000      0.0000000E+00
  -1.770000      0.0000000E+00
  -1.760000      0.0000000E+00
  -1.750000      0.0000000E+00
  -1.740000      0.0000000E+00
  -1.730000      0.0000000E+00
  -1.720000      0.0000000E+00
  -1.710000      0.0000000E+00
  -1.700000      0.0000000E+00
  -1.690000      0.0000000E+00
  -1.680000      0.0000000E+00
  -1.670000      0.0000000E+00
  -1.660000      0.0000000E+00
  -1.650000      0.0000000E+00
  -1.640000      0.0000000E+00
  -1.630000      0.0000000E+00
  -1.620000      0.0000000E+00
  -1.610000      0.0000000E+00
  -1.600000      0.0000000E+00
  -1.590000      0.0000000E+00
  -1.580000      0.0000000E+00
  -1.570000      0.0000000E+00
  -1.560000      0.0000000E+00
  -1.550000      0.0000000E+00
  -1.540000      0.0000000E+00
  -1.530000      0.0000000E+00
  -1.520000      0.0000000E+00
  -1.510000      0.0000000E+00
  -1.500000      0.0000000E+00
  -1.490000      0.0000000E+00
  -1.480000      0.0000000E+00
  -1.470000      0.0000000E+00
  -1.460000      0.0000000E+00
  -1.450000      0.0000000E+00
  -1.440000      0.0000000E+00
  -1.430000      0.0000000E+00
  -1.420000      0.0000000E+00
  -1.410000      0.0000000E+00
  -1.400000      0.0000000E+00
  -1.390000      0.0000000E+00
  -1.380000      0.0000000E+00
  -1.370000      0.0000000E+00
  -1.360000      0.0000000E+00
  -1.350000      0.0000000E+00
  -1.340000      0.0000000E+00
  -1.330000      0.0000000E+00
  -1.320000      0.0000000E+00
  -1.310000      0.0000000E+00
  -1.300000      0.0000000E+00
  -1.290000      0.0000000E+00
  -1.280000      0.0000000E+00
  -1.270000      0.0000000E+00
  -1.260000      0.0000000E+00
  -1.250000      0.0000000E+00
  -1.240000      0.0000000E+00
  -1.230000      0.0000000E+00
  -1.220000      0.0000000E+00
  -1.210000      0.0000000E+00
  -1.200000      0.0000000E+00
  -1.190000      0.0000000E+00
  -1.180000      0.0000000E+00
  -1.170000      0.0000000E+00
  -1.160000      0.0000000E+00
  -1.150000      0.0000000E+00
  -1.140000      0.0000000E+00
  -1.130000      0.0000000E+00
  -1.120000      0.0000000E+00
  -1.110000      0.0000000E+00
  -1.100000      0.0000000E+00
  -1.090000      0.0000000E+00
  -1.080000      0.0000000E+00
  -1.070000      0.0000000E+00
  -1.060000      0.0000000E+00
  -1.050000      0.0000000E+00
  -1.040000      0.0000000E+00
  -1.030000      0.0000000E+00
  -1.020000      0.0000000E+00
  -1.010000      0.0000000E+00
  -1.000000      0.0000000E+00
 -0.9900000      0.0000000E+00
 -0.9800000      0.0000000E+00
 -0.9700000      0.0000000E+00
 -0.9600000      0.0000000E+00
 -0.9500000      0.0000000E+00
 -0.9400000      0.0000000E+00
 -0.9300000      0.0000000E+00
 -0.9200000      0.0000000E+00
 -0.9100000      0.0000000E+00
 -0.9000000      0.0000000E+00
 -0.8900000      0.0000000E+00
 -0.8800000      0.0000000E+00
 -0.8700000      0.0000000E+00
 -0.8600000      0.0000000E+00
 -0.8500000      0.0000000E+00
 -0.8400000      0.0000000E+00
 -0.8300000      0.0000000E+00
 -0.8200000      0.0000000E+00
 -0.8100000      0.0000000E+00
 -0.8000000      0.0000000E+00
 -0.7900000      0.0000000E+00
 -0.7800000      0.0000000E+00
 -0.7700000      0.0000000E+00
 -0.7600000      0.0000000E+00
 -0.7500000      0.0000000E+00
 -0.7400000      0.0000000E+00
 -0.7300000      0.0000000E+00
 -0.7200000      0.0000000E+00
 -0.7100000      0.0000000E+00
 -0.7000000      0.0000000E+00
 -0.6900000      0.0000000E+00
 -0.6800000      0.0000000E+00
 -0.6700000      0.0000000E+00
 -0.6600000      0.0000000E+00
 -0.6500000      0.0000000E+00
 -0.6400000      0.0000000E+00
 -0.6300000      0.0000000E+00
 -0.6200000      0.0000000E+00
 -0.6100000      0.0000000E+00
 -0.6000000      0.0000000E+00
 -0.5900000      0.0000000E+00
 -0.5800000      0.0000000E+00
 -0.5700000      0.0000000E+00
 -0.5600000      0.0000000E+00
 -0.5500000      0.0000000E+00
 -0.5400000      0.0000000E+00
 -0.5300000      0.0000000E+00
 -0.5200000      0.0000000E+00
 -0.5100000      0.0000000E+00
 -0.5000000      0.0000000E+00
 -0.4900000      0.0000000E+00
 -0.4800000      0.0000000E+00
 -0.4700000      0.0000000E+00
 -0.4600000      0.0000000E+00
 -0.4500000      0.0000000E+00
 -0.4400000      0.0000000E+00
 -0.4300000      0.0000000E+00
 -0.4200000      0.0000000E+00
 -0.4100000      0.0000000E+00
 -0.4000000      0.0000000E+00
 -0.3900000      0.0000000E+00
 -0.3800000      0.0000000E+00
 -0.3700000      0.0000000E+00
 -0.3600000      0.0000000E+00
 -0.3500000      0.0000000E+00
 -0.3400000      0.0000000E+00
 -0.3300000      0.0000000E+00
 -0.3200000      0.0000000E+00
 -0.3100000      0.0000000E+00
 -0.3000000      0.0000000E+00
 -0.2900000      0.0000000E+00
 -0.2800000      0.0000000E+00
 -0.2700000      0.0000000E+00
 -0.2600000      0.0000000E+00
 -0.2500000      0.0000000E+00
 -0.2400000      0.0000000E+00
 -0.2300000      0.0000000E+00
 -0.2200000      0.0000000E+00
 -0.2100000      0.0000000E+00
 -0.2000000      0.0000000E+00
 -0.1900000      0.0000000E+00
 -0.1800000      0.0000000E+00
 -0.1700000      0.0000000E+00
 -0.1600000      0.0000000E+00
 -0.1500000      0.0000000E+00
 -0.1400000      0.0000000E+00
 -0.1300000      0.0000000E+00
 -0.1200000      0.0000000E+00
 -0.1100000      0.0000000E+00
 -0.1000000      0.0000000E+00
 -9.0000004E-02  0.0000000E+00
 -7.9999998E-02  0.0000000E+00
 -7.0000000E-02  0.0000000E+00
 -5.9999999E-02  0.0000000E+00
 -5.0000001E-02  0.0000000E+00
 -3.9999999E-02  0.0000000E+00
 -2.9999999E-02  0.0000000E+00
 -2.0000000E-02  0.0000000E+00
 -9.9999998E-03  0.0000000E+00
 -3.4694470E-17  0.0000000E+00
  9.9999998E-03  0.0000000E+00
  2.0000000E-02  0.0000000E+00
  2.9999999E-02  0.0000000E+00
  3.9999999E-02  0.0000000E+00
  5.0000001E-02  0.0000000E+00
  5.9999999E-02  0.0000000E+00
  7.0000000E-02  0.0000000E+00
  7.9999998E-02  0.0000000E+00
  9.0000004E-02  0.0000000E+00
  0.1000000      0.0000000E+00
  0.1100000      0.0000000E+00
  0.1200000      0.0000000E+00
  0.1300000      0.0000000E+00
  0.1400000      0.0000000E+00
  0.1500000      0.0000000E+00
  0.1600000      0.0000000E+00
  0.1700000      0.0000000E+00
  0.1800000      0.0000000E+00
  0.1900000      0.0000000E+00
  0.2000000     -1.2231047E-38
  0.2100000     -1.5622230E-38
  0.2200000     -1.9132453E-38
  0.2300000     -2.2548720E-38
  0.2400000     -2.5688222E-38
  0.2500000     -2.9680082E-38
  0.2600000     -3.3424544E-38
  0.2700000     -3.5323021E-38
  0.2800000     -3.5749240E-38
  0.2900000     -3.4745333E-38
  0.3000000     -3.2855923E-38
  0.3100000     -2.9130585E-38
  0.3200000     -1.5862906E-38
  0.3300000      0.0000000E+00
  0.3400000      3.5556547E-38
  0.3500000      6.9286569E-38
  0.3600000      1.1167823E-37
  0.3700000      1.5950272E-37
  0.3800000      2.0390352E-37
  0.3900000      2.5100507E-37
  0.4000000      3.0694405E-37
  0.4100000      3.5221915E-37
  0.4200000      3.8166128E-37
  0.4300000      4.0158349E-37
  0.4400000      4.0795865E-37
  0.4500000      3.8669627E-37
  0.4600000      3.3156845E-37
  0.4700000      2.4374937E-37
  0.4800000      1.2213263E-37
  0.4900000     -2.9430984E-38
  0.5000000     -2.1319922E-37
  0.5100000     -4.2094270E-37
  0.5200000     -6.3713082E-37
  0.5300000     -8.8544503E-37
  0.5400000     -1.1516305E-36
  0.5500000     -1.4119052E-36
  0.5600000     -1.6793920E-36
  0.5700000     -1.9370404E-36
  0.5800000     -2.1737322E-36
  0.5900000     -2.4033534E-36
  0.6000000     -2.6772257E-36
  0.6100000     -2.9833803E-36
  0.6200000     -3.2339985E-36
  0.6300000     -3.4184842E-36
  0.6400000     -3.6598217E-36
  0.6500000     -3.9504976E-36
  0.6600000     -4.1067083E-36
  0.6700000     -4.1022902E-36
  0.6800000     -4.0353234E-36
  0.6900000     -3.9092882E-36
  0.7000000     -3.5785534E-36
  0.7100000     -3.0337497E-36
  0.7200000     -2.2713750E-36
  0.7300000     -1.2448973E-36
  0.7400000      1.5688741E-37
  0.7500000      2.0384359E-36
  0.7600000      4.1578725E-36
  0.7700000      6.4165138E-36
  0.7800000      8.9727319E-36
  0.7900000      1.1781463E-35
  0.8000000      1.4548334E-35
  0.8100000      1.7238068E-35
  0.8200000      1.9959000E-35
  0.8300000      2.2662131E-35
  0.8400000      2.5319549E-35
  0.8500000      2.7812736E-35
  0.8600000      2.9816334E-35
  0.8700000      3.1366299E-35
  0.8800000      3.3109121E-35
  0.8900000      3.5103972E-35
  0.9000000      3.6761255E-35
  0.9100000      3.8053341E-35
  0.9200000      3.9009061E-35
  0.9300000      3.9419856E-35
  0.9400000      3.9298108E-35
  0.9500000      3.8779335E-35
  0.9600000      3.8393528E-35
  0.9700000      3.8236544E-35
  0.9800000      3.7787480E-35
  0.9900000      3.6671578E-35
   1.000000      3.4754151E-35
   1.010000      3.1960635E-35
   1.020000      2.7964523E-35
   1.030000      2.2597031E-35
   1.040000      1.6641638E-35
   1.050000      1.0172875E-35
   1.060000      2.6784384E-36
   1.070000     -5.8165375E-36
   1.080000     -1.5819176E-35
   1.090000     -2.7647578E-35
   1.100000     -4.1181427E-35
   1.110000     -5.3844747E-35
   1.120000     -6.5708418E-35
   1.130000     -7.8474648E-35
   1.140000     -9.1239036E-35
   1.150000     -1.0435932E-34
   1.160000     -1.1728557E-34
   1.170000     -1.3048044E-34
   1.180000     -1.4412571E-34
   1.190000     -1.5579071E-34
   1.200000     -1.6610821E-34
   1.210000     -1.7217613E-34
   1.220000     -1.7248117E-34
   1.230000     -1.6996130E-34
   1.240000     -1.6958039E-34
   1.250000     -1.7231799E-34
   1.260000     -1.7706933E-34
   1.270000     -1.8573665E-34
   1.280000     -1.9618980E-34
   1.290000     -2.0731154E-34
   1.300000     -2.1861630E-34
   1.310000     -2.2973660E-34
   1.320000     -2.3855090E-34
   1.330000     -2.4534562E-34
   1.340000     -2.5116152E-34
   1.350000     -2.5394790E-34
   1.360000     -2.5762421E-34
   1.370000     -2.6250612E-34
   1.380000     -2.6727913E-34
   1.390000     -2.7259737E-34
   1.400000     -2.7528174E-34
   1.410000     -2.7400732E-34
   1.420000     -2.7249674E-34
   1.430000     -2.7408912E-34
   1.440000     -2.7456267E-34
   1.450000     -2.7022342E-34
   1.460000     -2.6398224E-34
   1.470000     -2.5791434E-34
   1.480000     -2.4926130E-34
   1.490000     -2.3727700E-34
   1.500000     -2.2221127E-34
   1.510000     -2.0355368E-34
   1.520000     -1.8155647E-34
   1.530000     -1.5679553E-34
   1.540000     -1.2873131E-34
   1.550000     -9.5981002E-35
   1.560000     -6.1070255E-35
   1.570000     -2.6213693E-35
   1.580000      1.0316198E-35
   1.590000      5.0783813E-35
   1.600000      9.6186461E-35
   1.610000      1.4446807E-34
   1.620000      1.9594779E-34
   1.630000      2.5332124E-34
   1.640000      3.1783154E-34
   1.650000      3.9088553E-34
   1.660000      4.7406300E-34
   1.670000      5.6833389E-34
   1.680000      6.7243571E-34
   1.690000      7.8568095E-34
   1.700000      9.1091638E-34
   1.710000      1.0484605E-33
   1.720000      1.1979195E-33
   1.730000      1.3593658E-33
   1.740000      1.5342600E-33
   1.750000      1.7239291E-33
   1.760000      1.9264685E-33
   1.770000      2.1410739E-33
   1.780000      2.3680644E-33
   1.790000      2.6094344E-33
   1.800000      2.8628048E-33
   1.810000      3.1248945E-33
   1.820000      3.3958078E-33
   1.830000      3.6742838E-33
   1.840000      3.9584140E-33
   1.850000      4.2454136E-33
   1.860000      4.5315557E-33
   1.870000      4.8155048E-33
   1.880000      5.0933362E-33
   1.890000      5.3594703E-33
   1.900000      5.6099788E-33
   1.910000      5.8391051E-33
   1.920000      6.0404199E-33
   1.930000      6.2079642E-33
   1.940000      6.3347126E-33
   1.950000      6.4120161E-33
   1.960000      6.4316115E-33
   1.970000      6.3843486E-33
   1.980000      6.2608776E-33
   1.990000      6.0508638E-33
   2.000000      5.7446751E-33
   2.010000      5.3312467E-33
   2.020000      4.7986468E-33
   2.030000      4.1371064E-33
   2.040000      3.3362488E-33
   2.050000      2.3860644E-33
   2.060000      1.2771548E-33
   2.070000      6.2111391E-37
   2.080000     -1.4514996E-33
   2.090000     -3.0859750E-33
   2.100000     -4.9084710E-33
   2.110000     -6.9232723E-33
   2.120000     -9.1331121E-33
   2.130000     -1.1539085E-32
   2.140000     -1.4140484E-32
   2.150000     -1.6934827E-32
   2.160000     -1.9917473E-32
   2.170000     -2.3081657E-32
   2.180000     -2.6418213E-32
   2.190000     -2.9915523E-32
   2.200000     -3.3559447E-32
   2.210000     -3.7333001E-32
   2.220000     -4.1216223E-32
   2.230000     -4.5185909E-32
   2.240000     -4.9215424E-32
   2.250000     -5.3274362E-32
   2.260000     -5.7328383E-32
   2.270000     -6.1339200E-32
   2.280000     -6.5263975E-32
   2.290000     -6.9055092E-32
   2.300000     -7.2660245E-32
   2.310000     -7.6022241E-32
   2.320000     -7.9078943E-32
   2.330000     -8.1763296E-32
   2.340000     -8.4003412E-32
   2.350000     -8.5722808E-32
   2.360000     -8.6840756E-32
   2.370000     -8.7272656E-32
   2.380000     -8.6930581E-32
   2.390000     -8.5723913E-32
   2.400000     -8.3560175E-32
   2.410000     -8.0345668E-32
   2.420000     -7.5986135E-32
   2.430000     -7.0389201E-32
   2.440000     -6.3464370E-32
   2.450000     -5.5123420E-32
   2.460000     -4.5282752E-32
   2.470000     -3.3864200E-32
   2.480000     -2.0796173E-32
   2.490000     -6.0148577E-33
   2.500000      1.0534732E-32
   2.510000      2.8897654E-32
   2.520000      4.9107919E-32
   2.530000      7.1187591E-32
   2.540000      9.5145782E-32
   2.550000      1.2097768E-31
   2.560000      1.4866374E-31
   2.570000      1.7816871E-31
   2.580000      2.0944084E-31
   2.590000      2.4241082E-31
   2.600000      2.7699086E-31
   2.610000      3.1307371E-31
   2.620000      3.5053157E-31
   2.630000      3.8921490E-31
   2.640000      4.2895129E-31
   2.650000      4.6954417E-31
   2.660000      5.1077148E-31
   2.670000      5.5238464E-31
   2.680000      5.9410688E-31
   2.690000      6.3563263E-31
   2.700000      6.7662649E-31
   2.710000      7.1672195E-31
   2.720000      7.5552139E-31
   2.730000      7.9259597E-31
   2.740000      8.2748539E-31
   2.750000      8.5969902E-31
   2.760000      8.8871689E-31
   2.770000      9.1399171E-31
   2.780000      9.3495059E-31
   2.790000      9.5099844E-31
   2.800000      9.6152081E-31
   2.810000      9.6588847E-31
   2.820000      9.6346131E-31
   2.830000      9.5359356E-31
   2.840000      9.3563887E-31
   2.850000      9.0895665E-31
   2.860000      8.7291721E-31
   2.870000      8.2690808E-31
   2.880000      7.7034066E-31
   2.890000      7.0265607E-31
   2.900000      6.2333165E-31
   2.910000      5.3188684E-31
   2.920000      4.2789010E-31
   2.930000      3.1096426E-31
   2.940000      1.8079264E-31
   2.950000      3.7124868E-32
   2.960000     -1.2021727E-31
   2.970000     -2.9133419E-31
   2.980000     -4.7624288E-31
   2.990000     -6.7487044E-31
   3.000000     -8.8704873E-31
   3.010000     -1.1125076E-30
   3.020000     -1.3508688E-30
   3.030000     -1.6016389E-30
   3.040000     -1.8642024E-30
   3.050000     -2.1378153E-30
   3.060000     -2.4215962E-30
   3.070000     -2.7145200E-30
   3.080000     -3.0154110E-30
   3.090000     -3.3229337E-30
   3.100000     -3.6355881E-30
   3.110000     -3.9517039E-30
   3.120000     -4.2694331E-30
   3.130000     -4.5867492E-30
   3.140000     -4.9014432E-30
   3.150000     -5.2111222E-30
   3.160000     -5.5132114E-30
   3.170000     -5.8049586E-30
   3.180000     -6.0834360E-30
   3.190000     -6.3455540E-30
   3.200000     -6.5880647E-30
   3.210000     -6.8075816E-30
   3.220000     -7.0005891E-30
   3.230000     -7.1634603E-30
   3.240000     -7.2924841E-30
   3.250000     -7.3838777E-30
   3.260000     -7.4338142E-30
   3.270000     -7.4384478E-30
   3.280000     -7.3939400E-30
   3.290000     -7.2964849E-30
   3.300000     -7.1423360E-30
   3.310000     -6.9278371E-30
   3.320000     -6.6494514E-30
   3.330000     -6.3037906E-30
   3.340000     -5.8876431E-30
   3.350000     -5.3980062E-30
   3.360000     -4.8321135E-30
   3.370000     -4.1874694E-30
   3.380000     -3.4618786E-30
   3.390000     -2.6534808E-30
   3.400000     -1.7607854E-30
   3.410000     -7.8270583E-31
   3.420000      2.8140298E-31
   3.430000      1.4317039E-30
   3.440000      2.6678348E-30
   3.450000      3.9888710E-30
   3.460000      5.3932772E-30
   3.470000      6.8788605E-30
   3.480000      8.4427262E-30
   3.490000      1.0081230E-29
   3.500000      1.1789928E-29
   3.510000      1.3563530E-29
   3.520000      1.5395861E-29
   3.530000      1.7279815E-29
   3.540000      1.9207311E-29
   3.550000      2.1169274E-29
   3.560000      2.3155597E-29
   3.570000      2.5155125E-29
   3.580000      2.7155639E-29
   3.590000      2.9143843E-29
   3.600000      3.1105379E-29
   3.610000      3.3024827E-29
   3.620000      3.4885744E-29
   3.630000      3.6670681E-29
   3.640000      3.8361220E-29
   3.650000      3.9938030E-29
   3.660000      4.1380907E-29
   3.670000      4.2668867E-29
   3.680000      4.3780200E-29
   3.690000      4.4692537E-29
   3.700000      4.5382959E-29
   3.710000      4.5828072E-29
   3.720000      4.6004105E-29
   3.730000      4.5887017E-29
   3.740000      4.5452615E-29
   3.750000      4.4676637E-29
   3.760000      4.3534903E-29
   3.770000      4.2003422E-29
   3.780000      4.0058542E-29
   3.790000      3.7677079E-29
   3.800000      3.4836486E-29
   3.810000      3.1515018E-29
   3.820000      2.7691890E-29
   3.830000      2.3347487E-29
   3.840000      1.8463573E-29
   3.850000      1.3023483E-29
   3.860000      7.0123884E-30
   3.870000      4.1750512E-31
   3.880000     -6.7716148E-30
   3.890000     -1.4562812E-29
   3.900000     -2.2961047E-29
   3.910000     -3.1968129E-29
   3.920000     -4.1582368E-29
   3.930000     -5.1798307E-29
   3.940000     -6.2606403E-29
   3.950000     -7.3992712E-29
   3.960000     -8.5938635E-29
   3.970000     -9.8420617E-29
   3.980000     -1.1140981E-28
   3.990000     -1.2487187E-28
   4.000000     -1.3876671E-28
   4.010000     -1.5304827E-28
   4.020000     -1.6766427E-28
   4.030000     -1.8255608E-28
   4.040000     -1.9765850E-28
   4.050000     -2.1289969E-28
   4.060000     -2.2820091E-28
   4.070000     -2.4347659E-28
   4.080000     -2.5863422E-28
   4.090000     -2.7357421E-28
   4.100000     -2.8819002E-28
   4.110000     -3.0236790E-28
   4.120000     -3.1598721E-28
   4.130000     -3.2892026E-28
   4.140000     -3.4103246E-28
   4.150000     -3.5218239E-28
   4.160000     -3.6222192E-28
   4.170000     -3.7099639E-28
   4.180000     -3.7834482E-28
   4.190000     -3.8410008E-28
   4.200000     -3.8808928E-28
   4.210000     -3.9013409E-28
   4.220000     -3.9005101E-28
   4.230000     -3.8765200E-28
   4.240000     -3.8274504E-28
   4.250000     -3.7513473E-28
   4.260000     -3.6462276E-28
   4.270000     -3.5100901E-28
   4.280000     -3.3409230E-28
   4.290000     -3.1367132E-28
   4.300000     -2.8954578E-28
   4.310000     -2.6151733E-28
   4.320000     -2.2939102E-28
   4.330000     -1.9297654E-28
   4.340000     -1.5208956E-28
   4.350000     -1.0655322E-28
   4.360000     -5.6199593E-29
   4.370000     -8.7146807E-31
   4.380000      5.9576145E-29
   4.390000      1.2527452E-28
   4.400000      1.9633917E-28
   4.410000      2.7286799E-28
   4.420000      3.5493984E-28
   4.430000      4.4261250E-28
   4.440000      5.3592044E-28
   4.450000      6.3487351E-28
   4.460000      7.3945488E-28
   4.470000      8.4961870E-28
   4.480000      9.6528841E-28
   4.490000      1.0863546E-27
   4.500000      1.2126725E-27
   4.510000      1.3440608E-27
   4.520000      1.4802992E-27
   4.530000      1.6211257E-27
   4.540000      1.7662353E-27
   4.550000      1.9152772E-27
   4.560000      2.0678529E-27
   4.570000      2.2235135E-27
   4.580000      2.3817589E-27
   4.590000      2.5420342E-27
   4.600000      2.7037285E-27
   4.610000      2.8661732E-27
   4.620000      3.0286387E-27
   4.630000      3.1903345E-27
   4.640000      3.3504070E-27
   4.650000      3.5079377E-27
   4.660000      3.6619432E-27
   4.670000      3.8113714E-27
   4.680000      3.9551048E-27
   4.690000      4.0919583E-27
   4.700000      4.2206786E-27
   4.710000      4.3399452E-27
   4.720000      4.4483716E-27
   4.730000      4.5445052E-27
   4.740000      4.6268287E-27
   4.750000      4.6937624E-27
   4.760000      4.7436660E-27
   4.770000      4.7748414E-27
   4.780000      4.7855353E-27
   4.790000      4.7739431E-27
   4.800000      4.7382121E-27
   4.810000      4.6764456E-27
   4.820000      4.5867081E-27
   4.830000      4.4670304E-27
   4.840000      4.3154147E-27
   4.850000      4.1298405E-27
   4.860000      3.9082731E-27
   4.870000      3.6486689E-27
   4.880000      3.3489846E-27
   4.890000      3.0071842E-27
   4.900000      2.6212507E-27
   4.910000      2.1891913E-27
   4.920000      1.7090535E-27
   4.930000      1.1789346E-27
   4.940000      5.9699264E-28
   4.950000     -3.8542065E-29
   4.960000     -7.2934943E-28
   4.970000     -1.4770055E-27
   4.980000     -2.2829700E-27
   4.990000     -3.1485700E-27
   5.000000     -4.0749816E-27
   5.010000     -5.0632113E-27
   5.020000     -6.1140822E-27
   5.030000     -7.2282138E-27
   5.040000     -8.4059970E-27
   5.050000     -9.6475755E-27
   5.060000     -1.0952834E-26
   5.070000     -1.2321369E-26
   5.080000     -1.3752471E-26
   5.090000     -1.5245099E-26
   5.100000     -1.6797861E-26
   5.110000     -1.8408995E-26
   5.120000     -2.0076344E-26
   5.130000     -2.1797332E-26
   5.140000     -2.3568944E-26
   5.150000     -2.5387709E-26
   5.160000     -2.7249665E-26
   5.170000     -2.9150355E-26
   5.180000     -3.1084793E-26
   5.190000     -3.3047445E-26
   5.200000     -3.5032213E-26
   5.210000     -3.7032410E-26
   5.220000     -3.9040745E-26
   5.230000     -4.1049311E-26
   5.240000     -4.3049551E-26
   5.250000     -4.5032251E-26
   5.260000     -4.6987538E-26
   5.270000     -4.8904837E-26
   5.280000     -5.0772891E-26
   5.290000     -5.2579736E-26
   5.300000     -5.4312697E-26
   5.310000     -5.5958378E-26
   5.320000     -5.7502654E-26
   5.330000     -5.8930695E-26
   5.340000     -6.0226960E-26
   5.350000     -6.1375190E-26
   5.360000     -6.2358425E-26
   5.370000     -6.3159027E-26
   5.380000     -6.3758697E-26
   5.390000     -6.4138496E-26
   5.400000     -6.4278870E-26
   5.410000     -6.4159678E-26
   5.420000     -6.3760243E-26
   5.430000     -6.3059384E-26
   5.440000     -6.2035467E-26
   5.450000     -6.0666454E-26
   5.460000     -5.8929974E-26
   5.470000     -5.6803365E-26
   5.480000     -5.4263782E-26
   5.490000     -5.1288239E-26
   5.500000     -4.7853705E-26
   5.510000     -4.3937192E-26
   5.520000     -3.9515867E-26
   5.530000     -3.4567127E-26
   5.540000     -2.9068720E-26
   5.550000     -2.2998865E-26
   5.560000     -1.6336363E-26
   5.570000     -9.0607531E-27
   5.580000     -1.1524267E-27
   5.590000      7.4072221E-27
   5.600000      1.6635651E-26
   5.610000      2.6548991E-26
   5.620000      3.7161884E-26
   5.630000      4.8487342E-26
   5.640000      6.0536533E-26
   5.650000      7.3318588E-26
   5.660000      8.6840428E-26
   5.670000      1.0110656E-25
   5.680000      1.1611890E-25
   5.690000      1.3187649E-25
   5.700000      1.4837536E-25
   5.710000      1.6560828E-25
   5.720000      1.8356449E-25
   5.730000      2.0222952E-25
   5.740000      2.2158499E-25
   5.750000      2.4160830E-25
   5.760000      2.6227246E-25
   5.770000      2.8354585E-25
   5.780000      3.0539199E-25
   5.790000      3.2776924E-25
   5.800000      3.5063078E-25
   5.810000      3.7392416E-25
   5.820000      3.9759129E-25
   5.830000      4.2156806E-25
   5.840000      4.4578416E-25
   5.850000      4.7016307E-25
   5.860000      4.9462175E-25
   5.870000      5.1907038E-25
   5.880000      5.4341241E-25
   5.890000      5.6754425E-25
   5.900000      5.9135528E-25
   5.910000      6.1472770E-25
   5.920000      6.3753648E-25
   5.930000      6.5964929E-25
   5.940000      6.8092629E-25
   5.950000      7.0122068E-25
   5.960000      7.2037777E-25
   5.970000      7.3823595E-25
   5.980000      7.5462641E-25
   5.990000      7.6937308E-25
   6.000000      7.8229300E-25
   6.010000      7.9319629E-25
   6.020000      8.0188692E-25
   6.030000      8.0816231E-25
   6.040000      8.1181410E-25
   6.050000      8.1262830E-25
   6.060000      8.1038571E-25
   6.070000      8.0486236E-25
   6.080000      7.9583029E-25
   6.090000      7.8305780E-25
   6.100000      7.6631008E-25
   6.110000      7.4535030E-25
   6.120000      7.1993975E-25
   6.130000      6.8983909E-25
   6.140000      6.5480893E-25
   6.150000      6.1461105E-25
   6.160000      5.6900907E-25
   6.170000      5.1776959E-25
   6.180000      4.6066376E-25
   6.190000      3.9746727E-25
   6.200000      3.2796278E-25
   6.210000      2.5194090E-25
   6.220000      1.6920114E-25
   6.230000      7.9553658E-26
   6.240000     -1.7179360E-26
   6.250000     -1.2116205E-25
   6.260000     -2.3254343E-25
   6.270000     -3.5145587E-25
   6.280000     -4.7801313E-25
   6.290000     -6.1230841E-25
   6.300000     -7.5441308E-25
   6.310000     -9.0437519E-25
   6.320000     -1.0622161E-24
   6.330000     -1.2279296E-24
   6.340000     -1.4014801E-24
   6.350000     -1.5828003E-24
   6.360000     -1.7717895E-24
   6.370000     -1.9683115E-24
   6.380000     -2.1721920E-24
   6.390000     -2.3832170E-24
   6.400000     -2.6011308E-24
   6.410000     -2.8256341E-24
   6.420000     -3.0563822E-24
   6.430000     -3.2929823E-24
   6.440000     -3.5349930E-24
   6.450000     -3.7819211E-24
   6.460000     -4.0332194E-24
   6.470000     -4.2882877E-24
   6.480000     -4.5464677E-24
   6.490000     -4.8070442E-24
   6.500000     -5.0692423E-24
   6.510000     -5.3322268E-24
   6.520000     -5.5950997E-24
   6.530000     -5.8569021E-24
   6.540000     -6.1166101E-24
   6.550000     -6.3731355E-24
   6.560000     -6.6253256E-24
   6.570000     -6.8719614E-24
   6.580000     -7.1117617E-24
   6.590000     -7.3433768E-24
   6.600000     -7.5653962E-24
   6.610000     -7.7763415E-24
   6.620000     -7.9746761E-24
   6.630000     -8.1587963E-24
   6.640000     -8.3270437E-24
   6.650000     -8.4776980E-24
   6.660000     -8.6089850E-24
   6.670000     -8.7190776E-24
   6.680000     -8.8060945E-24
   6.690000     -8.8681108E-24
   6.700000     -8.9031575E-24
   6.710000     -8.9092255E-24
   6.720000     -8.8842714E-24
   6.730000     -8.8262207E-24
   6.740000     -8.7329758E-24
   6.750000     -8.6024169E-24
   6.760000     -8.4324158E-24
   6.770000     -8.2208362E-24
   6.780000     -7.9655443E-24
   6.790000     -7.6644124E-24
   6.800000     -7.3153344E-24
   6.810000     -6.9162283E-24
   6.820000     -6.4650429E-24
   6.830000     -5.9597759E-24
   6.840000     -5.3984769E-24
   6.850000     -4.7792609E-24
   6.860000     -4.1003172E-24
   6.870000     -3.3599243E-24
   6.880000     -2.5564605E-24
   6.890000     -1.6884112E-24
   6.900000     -7.5438763E-25
   6.910000      2.4686534E-25
   6.920000      1.3164523E-24
   6.930000      2.4553085E-24
   6.940000      3.6641966E-24
   6.950000      4.9436931E-24
   6.960000      6.2941642E-24
   6.970000      7.7157539E-24
   6.980000      9.2083686E-24
   6.990000      1.0771669E-23
   7.000000      1.2405052E-23
   7.010000      1.4107630E-23
   7.020000      1.5878224E-23
   7.030000      1.7715340E-23
   7.040000      1.9617161E-23
   7.050000      2.1581527E-23
   7.060000      2.3605929E-23