  -2.600000      0.0000000E+00
  -2.590000      0.0000000E+00
  -2.580000      0.0000000E+00
  -2.570000      0.0000000E+00
  -2.560000      0.0000000E+00
  -2.550000      0.0000000E+00
  -2.540000      0.0000000E+00
  -2.530000      0.0000000E+00
  -2.520000      0.0000000E+00
  -2.510000      0.0000000E+00
  -2.500000      0.0000000E+00
  -2.490000      0.0000000E+00
  -2.480000      0.0000000E+00
  -2.470000      0.0000000E+00
  -2.460000      0.0000000E+00
  -2.450000      0.0000000E+00
  -2.440000      0.0000000E+00
  -2.430000      0.0000000E+00
  -2.420000      0.0000000E+00
  -2.410000      0.0000000E+00
  -2.400000      0.0000000E+00
  -2.390000      0.0000000E+00
  -2.380000      0.0000000E+00
  -2.370000      0.0000000E+00
  -2.360000      0.0000000E+00
  -2.350000      0.0000000E+00
  -2.340000      0.0000000E+00
  -2.330000      0.0000000E+00
  -2.320000      0.0000000E+00
  -2.310000      0.0000000E+00
  -2.300000      0.0000000E+00
  -2.290000      0.0000000E+00
  -2.280000      0.0000000E+00
  -2.270000      0.0000000E+00
  -2.260000      0.0000000E+00
  -2.250000      0.0000000E+00
  -2.240000      0.0000000E+00
  -2.230000      0.0000000E+00
  -2.220000      0.0000000E+00
  -2.210000      0.0000000E+00
  -2.200000      0.0000000E+00
  -2.190000      0.0000000E+00
  -2.180000      0.0000000E+00
  -2.170000      0.0000000E+00
  -2.160000      0.0000000E+00
  -2.150000      0.0000000E+00
  -2.140000      0.0000000E+00
  -2.130000      0.0000000E+00
  -2.120000      0.0000000E+00
  -2.110000      0.0000000E+00
  -2.100000      0.0000000E+00
  -2.090000      0.0000000E+00
  -2.080000      0.0000000E+00
  -2.070000      0.0000000E+00
  -2.060000      0.0000000E+00
  -2.050000      0.0000000E+00
  -2.040000      0.0000000E+00
  -2.030000      0.0000000E+00
  -2.020000      0.0000000E+00
  -2.010000      0.0000000E+00
  -2.000000      0.0000000E+00
  -1.990000      0.0000000E+00
  -1.980000      0.0000000E+00
  -1.970000      0.0000000E+00
  -1.960000      0.0000000E+00
  -1.950000      0.0000000E+00
  -1.940000      0.0000000E+00
  -1.930000      0.0000000E+00
  -1.920000      0.0000000E+00
  -1.910000      0.0000000E+00
  -1.900000      0.0000000E+00
  -1.890000      0.0000000E+00
  -1.880000      0.0000000E+00
  -1.870000      0.0000000E+00
  -1.860000      0.0000000E+00
  -1.850000      0.0000000E+00
  -1.840000      0.0000000E+00
  -1.830000      0.0000000E+00
  -1.820000      0.0000000E+00
  -1.810000      0.0000000E+00
  -1.800000      0.0000000E+00
  -1.790000      0.0000000E+00
  -1.780000      0.0000000E+00
  -1.770000      0.0000000E+00
  -1.760000      0.0000000E+00
  -1.750000      0.0000000E+00
  -1.740000      0.0000000E+00
  -1.730000      0.0000000E+00
  -1.720000      0.0000000E+00
  -1.710000      0.0000000E+00
  -1.700000      0.0000000E+00
  -1.690000      0.0000000E+00
  -1.680000      0.0000000E+00
  -1.670000      0.0000000E+00
  -1.660000      0.0000000E+00
  -1.650000      0.0000000E+00
  -1.640000      0.0000000E+00
  -1.630000      0.0000000E+00
  -1.620000      0.0000000E+00
  -1.610000      0.0000000E+00
  -1.600000      0.0000000E+00
  -1.590000      0.0000000E+00
  -1.580000      0.0000000E+00
  -1.570000      0.0000000E+00
  -1.560000      0.0000000E+00
  -1.550000      0.0000000E+00
  -1.540000      0.0000000E+00
  -1.530000      0.0000000E+00
  -1.520000      0.0000000E+00
  -1.510000      0.0000000E+00
  -1.500000      0.0000000E+00
  -1.490000      0.0000000E+00
  -1.480000      0.0000000E+00
  -1.470000      0.0000000E+00
  -1.460000      0.0000000E+00
  -1.450000      0.0000000E+00
  -1.440000      0.0000000E+00
  -1.430000      0.0000000E+00
  -1.420000      0.0000000E+00
  -1.410000      0.0000000E+00
  -1.400000      0.0000000E+00
  -1.390000      0.0000000E+00
  -1.380000      0.0000000E+00
  -1.370000      0.0000000E+00
  -1.360000      0.0000000E+00
  -1.350000      0.0000000E+00
  -1.340000      0.0000000E+00
  -1.330000      0.0000000E+00
  -1.320000      0.0000000E+00
  -1.310000      0.0000000E+00
  -1.300000      0.0000000E+00
  -1.290000      0.0000000E+00
  -1.280000      0.0000000E+00
  -1.270000      0.0000000E+00
  -1.260000      0.0000000E+00
  -1.250000      0.0000000E+00
  -1.240000      0.0000000E+00
  -1.230000      0.0000000E+00
  -1.220000      0.0000000E+00
  -1.210000      0.0000000E+00
  -1.200000      0.0000000E+00
  -1.190000      0.0000000E+00
  -1.180000      0.0000000E+00
  -1.170000      0.0000000E+00
  -1.160000      0.0000000E+00
  -1.150000      0.0000000E+00
  -1.140000      0.0000000E+00
  -1.130000      0.0000000E+00
  -1.120000      0.0000000E+00
  -1.110000      0.0000000E+00
  -1.100000      0.0000000E+00
  -1.090000      0.0000000E+00
  -1.080000      0.0000000E+00
  -1.070000      0.0000000E+00
  -1.060000      0.0000000E+00
  -1.050000      0.0000000E+00
  -1.040000      0.0000000E+00
  -1.030000      0.0000000E+00
  -1.020000      0.0000000E+00
  -1.010000      0.0000000E+00
  -1.000000      0.0000000E+00
 -0.9900000      0.0000000E+00
 -0.9800000      0.0000000E+00
 -0.9700000      0.0000000E+00
 -0.9600000      0.0000000E+00
 -0.9500000      0.0000000E+00
 -0.9400000      0.0000000E+00
 -0.9300000      0.0000000E+00
 -0.9200000      0.0000000E+00
 -0.9100000      0.0000000E+00
 -0.9000000      0.0000000E+00
 -0.8900000      0.0000000E+00
 -0.8800000      0.0000000E+00
 -0.8700000      0.0000000E+00
 -0.8600000      0.0000000E+00
 -0.8500000      0.0000000E+00
 -0.8400000      0.0000000E+00
 -0.8300000      0.0000000E+00
 -0.8200000      0.0000000E+00
 -0.8100000      0.0000000E+00
 -0.8000000      0.0000000E+00
 -0.7900000      0.0000000E+00
 -0.7800000      0.0000000E+00
 -0.7700000      0.0000000E+00
 -0.7600000      0.0000000E+00
 -0.7500000      0.0000000E+00
 -0.7400000      0.0000000E+00
 -0.7300000      0.0000000E+00
 -0.7200000      0.0000000E+00
 -0.7100000      0.0000000E+00
 -0.7000000      0.0000000E+00
 -0.6900000      0.0000000E+00
 -0.6800000      0.0000000E+00
 -0.6700000      0.0000000E+00
 -0.6600000      0.0000000E+00
 -0.6500000      0.0000000E+00
 -0.6400000      0.0000000E+00
 -0.6300000      0.0000000E+00
 -0.6200000      0.0000000E+00
 -0.6100000      0.0000000E+00
 -0.6000000      0.0000000E+00
 -0.5900000      0.0000000E+00
 -0.5800000      0.0000000E+00
 -0.5700000      0.0000000E+00
 -0.5600000      0.0000000E+00
 -0.5500000      0.0000000E+00
 -0.5400000      0.0000000E+00
 -0.5300000      0.0000000E+00
 -0.5200000      0.0000000E+00
 -0.5100000      0.0000000E+00
 -0.5000000      0.0000000E+00
 -0.4900000      0.0000000E+00
 -0.4800000      0.0000000E+00
 -0.4700000      0.0000000E+00
 -0.4600000      0.0000000E+00
 -0.4500000      0.0000000E+00
 -0.4400000      0.0000000E+00
 -0.4300000      0.0000000E+00
 -0.4200000      0.0000000E+00
 -0.4100000      0.0000000E+00
 -0.4000000      0.0000000E+00
 -0.3900000      0.0000000E+00
 -0.3800000      0.0000000E+00
 -0.3700000      0.0000000E+00
 -0.3600000      0.0000000E+00
 -0.3500000      0.0000000E+00
 -0.3400000      0.0000000E+00
 -0.3300000      0.0000000E+00
 -0.3200000      0.0000000E+00
 -0.3100000      0.0000000E+00
 -0.3000000      0.0000000E+00
 -0.2900000      0.0000000E+00
 -0.2800000      0.0000000E+00
 -0.2700000      0.0000000E+00
 -0.2600000      0.0000000E+00
 -0.2500000      0.0000000E+00
 -0.2400000      0.0000000E+00
 -0.2300000      0.0000000E+00
 -0.2200000      0.0000000E+00
 -0.2100000      0.0000000E+00
 -0.2000000      0.0000000E+00
 -0.1900000      0.0000000E+00
 -0.1800000      0.0000000E+00
 -0.1700000      0.0000000E+00
 -0.1600000      0.0000000E+00
 -0.1500000      0.0000000E+00
 -0.1400000      0.0000000E+00
 -0.1300000      0.0000000E+00
 -0.1200000      0.0000000E+00
 -0.1100000      0.0000000E+00
 -0.1000000      0.0000000E+00
 -9.0000004E-02  0.0000000E+00
 -7.9999998E-02  0.0000000E+00
 -7.0000000E-02  0.0000000E+00
 -5.9999999E-02  0.0000000E+00
 -5.0000001E-02  0.0000000E+00
 -3.9999999E-02  0.0000000E+00
 -2.9999999E-02  0.0000000E+00
 -2.0000000E-02  0.0000000E+00
 -9.9999998E-03  0.0000000E+00
 -3.4694470E-17  0.0000000E+00
  9.9999998E-03  0.0000000E+00
  2.0000000E-02  0.0000000E+00
  2.9999999E-02  0.0000000E+00
  3.9999999E-02  0.0000000E+00
  5.0000001E-02  0.0000000E+00
  5.9999999E-02  0.0000000E+00
  7.0000000E-02  0.0000000E+00
  7.9999998E-02  0.0000000E+00
  9.0000004E-02  0.0000000E+00
  0.1000000      0.0000000E+00
  0.1100000      0.0000000E+00
  0.1200000      0.0000000E+00
  0.1300000      0.0000000E+00
  0.1400000      0.0000000E+00
  0.1500000      0.0000000E+00
  0.1600000      0.0000000E+00
  0.1700000      0.0000000E+00
  0.1800000      0.0000000E+00
  0.1900000      0.0000000E+00
  0.2000000      0.0000000E+00
  0.2100000      0.0000000E+00
  0.2200000      0.0000000E+00
  0.2300000      0.0000000E+00
  0.2400000      0.0000000E+00
  0.2500000      0.0000000E+00
  0.2600000      0.0000000E+00
  0.2700000      0.0000000E+00
  0.2800000      0.0000000E+00
  0.2900000      0.0000000E+00
  0.3000000      0.0000000E+00
  0.3100000      0.0000000E+00
  0.3200000      0.0000000E+00
  0.3300000      0.0000000E+00
  0.3400000      0.0000000E+00
  0.3500000      0.0000000E+00
  0.3600000      0.0000000E+00
  0.3700000      0.0000000E+00
  0.3800000      0.0000000E+00
  0.3900000      0.0000000E+00
  0.4000000      0.0000000E+00
  0.4100000      0.0000000E+00
  0.4200000      0.0000000E+00
  0.4300000      0.0000000E+00
  0.4400000      0.0000000E+00
  0.4500000      0.0000000E+00
  0.4600000      0.0000000E+00
  0.4700000      0.0000000E+00
  0.4800000      0.0000000E+00
  0.4900000      0.0000000E+00
  0.5000000      0.0000000E+00
  0.5100000      0.0000000E+00
  0.5200000      0.0000000E+00
  0.5300000      0.0000000E+00
  0.5400000      0.0000000E+00
  0.5500000      0.0000000E+00
  0.5600000      0.0000000E+00
  0.5700000      0.0000000E+00
  0.5800000      0.0000000E+00
  0.5900000      0.0000000E+00
  0.6000000      0.0000000E+00
  0.6100000      0.0000000E+00
  0.6200000      0.0000000E+00
  0.6300000      0.0000000E+00
  0.6400000      0.0000000E+00
  0.6500000      0.0000000E+00
  0.6600000      0.0000000E+00
  0.6700000      0.0000000E+00
  0.6800000      0.0000000E+00
  0.6900000      0.0000000E+00
  0.7000000      0.0000000E+00
  0.7100000      0.0000000E+00
  0.7200000      0.0000000E+00
  0.7300000      0.0000000E+00
  0.7400000      0.0000000E+00
  0.7500000      0.0000000E+00
  0.7600000      0.0000000E+00
  0.7700000      0.0000000E+00
  0.7800000      0.0000000E+00
  0.7900000      0.0000000E+00
  0.8000000      0.0000000E+00
  0.8100000      0.0000000E+00
  0.8200000      0.0000000E+00
  0.8300000      0.0000000E+00
  0.8400000      0.0000000E+00
  0.8500000      0.0000000E+00
  0.8600000      0.0000000E+00
  0.8700000      0.0000000E+00
  0.8800000      0.0000000E+00
  0.8900000      0.0000000E+00
  0.9000000      0.0000000E+00
  0.9100000      0.0000000E+00
  0.9200000      0.0000000E+00
  0.9300000      0.0000000E+00
  0.9400000      0.0000000E+00
  0.9500000      0.0000000E+00
  0.9600000      0.0000000E+00
  0.9700000      0.0000000E+00
  0.9800000      0.0000000E+00
  0.9900000      0.0000000E+00
   1.000000      0.0000000E+00
   1.010000      0.0000000E+00
   1.020000      0.0000000E+00
   1.030000      0.0000000E+00
   1.040000      0.0000000E+00
   1.050000      0.0000000E+00
   1.060000      0.0000000E+00
   1.070000      0.0000000E+00
   1.080000      0.0000000E+00
   1.090000      0.0000000E+00
   1.100000      0.0000000E+00
   1.110000      0.0000000E+00
   1.120000      0.0000000E+00
   1.130000      0.0000000E+00
   1.140000      0.0000000E+00
   1.150000      0.0000000E+00
   1.160000      0.0000000E+00
   1.170000      0.0000000E+00
   1.180000      0.0000000E+00
   1.190000      0.0000000E+00
   1.200000      0.0000000E+00
   1.210000      0.0000000E+00
   1.220000      0.0000000E+00
   1.230000      0.0000000E+00
   1.240000      0.0000000E+00
   1.250000      0.0000000E+00
   1.260000      0.0000000E+00
   1.270000      0.0000000E+00
   1.280000      0.0000000E+00
   1.290000      0.0000000E+00
   1.300000      0.0000000E+00
   1.310000      0.0000000E+00
   1.320000      0.0000000E+00
   1.330000      0.0000000E+00
   1.340000      0.0000000E+00
   1.350000      0.0000000E+00
   1.360000      0.0000000E+00
   1.370000      0.0000000E+00
   1.380000      0.0000000E+00
   1.390000      0.0000000E+00
   1.400000      0.0000000E+00
   1.410000      0.0000000E+00
   1.420000      0.0000000E+00
   1.430000      0.0000000E+00
   1.440000      0.0000000E+00
   1.450000      0.0000000E+00
   1.460000      0.0000000E+00
   1.470000      0.0000000E+00
   1.480000      0.0000000E+00
   1.490000      0.0000000E+00
   1.500000      0.0000000E+00
   1.510000      0.0000000E+00
   1.520000      0.0000000E+00
   1.530000      0.0000000E+00
   1.540000      0.0000000E+00
   1.550000      0.0000000E+00
   1.560000      0.0000000E+00
   1.570000      0.0000000E+00
   1.580000      0.0000000E+00
   1.590000      0.0000000E+00
   1.600000      0.0000000E+00
   1.610000      0.0000000E+00
   1.620000      0.0000000E+00
   1.630000      0.0000000E+00
   1.640000      0.0000000E+00
   1.650000      0.0000000E+00
   1.660000      0.0000000E+00
   1.670000      0.0000000E+00
   1.680000      0.0000000E+00
   1.690000      0.0000000E+00
   1.700000      0.0000000E+00
   1.710000      0.0000000E+00
   1.720000      0.0000000E+00
   1.730000      0.0000000E+00
   1.740000      0.0000000E+00
   1.750000      0.0000000E+00
   1.760000      0.0000000E+00
   1.770000      0.0000000E+00
   1.780000      0.0000000E+00
   1.790000      0.0000000E+00
   1.800000      0.0000000E+00
   1.810000      0.0000000E+00
   1.820000      0.0000000E+00
   1.830000      0.0000000E+00
   1.840000      0.0000000E+00
   1.850000      0.0000000E+00
   1.860000      0.0000000E+00
   1.870000      0.0000000E+00
   1.880000      0.0000000E+00
   1.890000      0.0000000E+00
   1.900000      0.0000000E+00
   1.910000      0.0000000E+00
   1.920000      0.0000000E+00
   1.930000      0.0000000E+00
   1.940000      0.0000000E+00
   1.950000      0.0000000E+00
   1.960000      0.0000000E+00
   1.970000      0.0000000E+00
   1.980000      0.0000000E+00
   1.990000      0.0000000E+00
   2.000000      0.0000000E+00
   2.010000      0.0000000E+00
   2.020000      0.0000000E+00
   2.030000      0.0000000E+00
   2.040000      0.0000000E+00
   2.050000      0.0000000E+00
   2.060000      0.0000000E+00
   2.070000      0.0000000E+00
   2.080000      0.0000000E+00
   2.090000      0.0000000E+00
   2.100000      0.0000000E+00
   2.110000      0.0000000E+00
   2.120000      0.0000000E+00
   2.130000      0.0000000E+00
   2.140000      0.0000000E+00
   2.150000      0.0000000E+00
   2.160000      0.0000000E+00
   2.170000      0.0000000E+00
   2.180000      0.0000000E+00
   2.190000      0.0000000E+00
   2.200000      0.0000000E+00
   2.210000      0.0000000E+00
   2.220000      0.0000000E+00
   2.230000      0.0000000E+00
   2.240000      0.0000000E+00
   2.250000      0.0000000E+00
   2.260000      0.0000000E+00
   2.270000      0.0000000E+00
   2.280000      0.0000000E+00
   2.290000      0.0000000E+00
   2.300000      0.0000000E+00
   2.310000      0.0000000E+00
   2.320000      0.0000000E+00
   2.330000      0.0000000E+00
   2.340000      0.0000000E+00
   2.350000      0.0000000E+00
   2.360000      0.0000000E+00
   2.370000      0.0000000E+00
   2.380000      0.0000000E+00
   2.390000      0.0000000E+00
   2.400000      0.0000000E+00
   2.410000      0.0000000E+00
   2.420000      0.0000000E+00
   2.430000      0.0000000E+00
   2.440000      0.0000000E+00
   2.450000      0.0000000E+00
   2.460000      0.0000000E+00
   2.470000      0.0000000E+00
   2.480000      0.0000000E+00
   2.490000      0.0000000E+00
   2.500000      0.0000000E+00
   2.510000      0.0000000E+00
   2.520000      0.0000000E+00
   2.530000      0.0000000E+00
   2.540000      0.0000000E+00
   2.550000      0.0000000E+00
   2.560000      0.0000000E+00
   2.570000      0.0000000E+00
   2.580000      0.0000000E+00
   2.590000      0.0000000E+00
   2.600000      0.0000000E+00
   2.610000      0.0000000E+00
   2.620000      0.0000000E+00
   2.630000      0.0000000E+00
   2.640000      0.0000000E+00
   2.650000      0.0000000E+00
   2.660000      0.0000000E+00
   2.670000      0.0000000E+00
   2.680000      0.0000000E+00
   2.690000      0.0000000E+00
   2.700000      0.0000000E+00
   2.710000      0.0000000E+00
   2.720000      0.0000000E+00
   2.730000      0.0000000E+00
   2.740000      0.0000000E+00
   2.750000      0.0000000E+00
   2.760000      0.0000000E+00
   2.770000      0.0000000E+00
   2.780000      0.0000000E+00
   2.790000      0.0000000E+00
   2.800000      0.0000000E+00
   2.810000      0.0000000E+00
   2.820000      0.0000000E+00
   2.830000      0.0000000E+00
   2.840000      0.0000000E+00
   2.850000      0.0000000E+00
   2.860000      0.0000000E+00
   2.870000      0.0000000E+00
   2.880000      0.0000000E+00
   2.890000      0.0000000E+00
   2.900000      0.0000000E+00
   2.910000      0.0000000E+00
   2.920000      0.0000000E+00
   2.930000      0.0000000E+00
   2.940000      0.0000000E+00
   2.950000      0.0000000E+00
   2.960000      0.0000000E+00
   2.970000      0.0000000E+00
   2.980000      0.0000000E+00
   2.990000      0.0000000E+00
   3.000000      0.0000000E+00
   3.010000      0.0000000E+00
   3.020000      0.0000000E+00
   3.030000      0.0000000E+00
   3.040000      0.0000000E+00
   3.050000      0.0000000E+00
   3.060000      0.0000000E+00
   3.070000      0.0000000E+00
   3.080000      0.0000000E+00
   3.090000      0.0000000E+00
   3.100000      0.0000000E+00
   3.110000      0.0000000E+00
   3.120000      0.0000000E+00
   3.130000      0.0000000E+00
   3.140000      0.0000000E+00
   3.150000      0.0000000E+00
   3.160000      0.0000000E+00
   3.170000      0.0000000E+00
   3.180000      0.0000000E+00
   3.190000      0.0000000E+00
   3.200000      0.0000000E+00
   3.210000      0.0000000E+00
   3.220000      0.0000000E+00
   3.230000      0.0000000E+00
   3.240000      0.0000000E+00
   3.250000      0.0000000E+00
   3.260000      0.0000000E+00
   3.270000      0.0000000E+00
   3.280000      0.0000000E+00
   3.290000      0.0000000E+00
   3.300000      0.0000000E+00
   3.310000      0.0000000E+00
   3.320000      0.0000000E+00
   3.330000      0.0000000E+00
   3.340000      0.0000000E+00
   3.350000      0.0000000E+00
   3.360000      0.0000000E+00
   3.370000      0.0000000E+00
   3.380000      0.0000000E+00
   3.390000      0.0000000E+00
   3.400000      0.0000000E+00
   3.410000      0.0000000E+00
   3.420000      0.0000000E+00
   3.430000      0.0000000E+00
   3.440000      0.0000000E+00
   3.450000      0.0000000E+00
   3.460000      0.0000000E+00
   3.470000      0.0000000E+00
   3.480000      0.0000000E+00
   3.490000     -1.1923506E-38
   3.500000     -1.6170366E-38
   3.510000     -2.0800909E-38
   3.520000     -2.5734555E-38
   3.530000     -3.0860255E-38
   3.540000     -3.6044583E-38
   3.550000     -4.1187329E-38
   3.560000     -4.6212458E-38
   3.570000     -5.1009304E-38
   3.580000     -5.5451342E-38
   3.590000     -5.9369602E-38
   3.600000     -6.2629325E-38
   3.610000     -6.4144376E-38
   3.620000     -6.4268262E-38
   3.630000     -6.4404187E-38
   3.640000     -6.4487284E-38
   3.650000     -6.4496679E-38
   3.660000     -6.4476057E-38
   3.670000     -6.3136741E-38
   3.680000     -6.0137828E-38
   3.690000     -5.6471252E-38
   3.700000     -5.2212633E-38
   3.710000     -4.7448723E-38
   3.720000     -4.2297258E-38
   3.730000     -3.6835423E-38
   3.740000     -3.1096329E-38
   3.750000     -2.5147391E-38
   3.760000     -1.9068145E-38
   3.770000     -1.2915376E-38
   3.780000      0.0000000E+00
   3.790000      0.0000000E+00
   3.800000      0.0000000E+00
   3.810000      0.0000000E+00
   3.820000      1.7399084E-38
   3.830000      2.3098159E-38
   3.840000      2.8698270E-38
   3.850000      3.4337779E-38
   3.860000      4.0063148E-38
   3.870000      4.5942929E-38
   3.880000      5.2010437E-38
   3.890000      5.9526015E-38
   3.900000      6.8664948E-38
   3.910000      7.8375980E-38
   3.920000      8.8882125E-38
   3.930000      9.9018104E-38
   3.940000      1.0859631E-37
   3.950000      1.1879869E-37
   3.960000      1.2958615E-37
   3.970000      1.3976746E-37
   3.980000      1.4997789E-37
   3.990000      1.6135454E-37
   4.000000      1.7321352E-37
   4.010000      1.8589218E-37
   4.020000      2.0608253E-37
   4.030000      2.3423406E-37
   4.040000      2.6374921E-37
   4.050000      2.9326433E-37
   4.060000      3.2070861E-37
   4.070000      3.3778589E-37
   4.080000      3.4531662E-37
   4.090000      3.5081955E-37
   4.100000      3.5401492E-37
   4.110000      3.5170049E-37
   4.120000      3.4040450E-37
   4.130000      3.3158170E-37
   4.140000      3.2873523E-37
   4.150000      3.2368468E-37
   4.160000      3.1627679E-37
   4.170000      3.0803672E-37
   4.180000      2.9186105E-37
   4.190000      2.6568370E-37
   4.200000      2.3597622E-37
   4.210000      2.0480825E-37
   4.220000      1.7283529E-37
   4.230000      1.3860269E-37
   4.240000      1.1436623E-37
   4.250000      1.0120317E-37
   4.260000      8.8408705E-38
   4.270000      7.3993912E-38
   4.280000      4.5519334E-38
   4.290000      0.0000000E+00
   4.300000     -4.6500433E-38
   4.310000     -9.5909856E-38
   4.320000     -4.7961957E-38
   4.330000      9.3867973E-38
   4.340000      2.2978073E-37
   4.350000      3.7031801E-37
   4.360000      5.2301091E-37
   4.370000      6.8944091E-37
   4.380000      8.8363191E-37
   4.390000      1.1033706E-36
   4.400000      1.3232374E-36
   4.410000      1.5418511E-36
   4.420000      1.7354756E-36
   4.430000      1.1390036E-36
   4.440000     -3.0028162E-37
   4.450000     -1.8385829E-36
   4.460000     -3.3291178E-36
   4.470000     -4.0009142E-36
   4.480000     -3.9226944E-36
   4.490000     -3.7990121E-36
   4.500000     -3.7420949E-36
   4.510000     -3.7954097E-36
   4.520000     -3.8558335E-36
   4.530000     -3.9282795E-36
   4.540000     -4.0068792E-36
   4.550000     -4.0791663E-36
   4.560000     -4.1324413E-36
   4.570000     -4.1577158E-36
   4.580000     -4.0832946E-36
   4.590000     -3.2149505E-36
   4.600000     -1.5913710E-36
   4.610000     -5.9173565E-37
   4.620000     -2.3871433E-37
   4.630000      1.6352261E-37
   4.640000      7.8595912E-37
   4.650000      1.2554484E-36
   4.660000      1.2215565E-36
   4.670000      7.5913104E-37
   4.680000      0.0000000E+00
   4.690000     -8.6506840E-37
   4.700000     -1.7181813E-36
   4.710000     -2.5688363E-36
   4.720000     -3.4683688E-36
   4.730000     -4.4128179E-36
   4.740000     -5.4524169E-36
   4.750000     -5.8314794E-36
   4.760000     -5.4222052E-36
   4.770000     -4.5717321E-36
   4.780000     -3.2569609E-36
   4.790000     -1.8179552E-36
   4.800000     -6.3258747E-37
   4.810000      1.1654934E-36
   4.820000      3.7501495E-36
   4.830000      6.1213682E-36
   4.840000      8.3145835E-36
   4.850000      1.0236682E-35
   4.860000      1.1199176E-35
   4.870000      1.1364879E-35
   4.880000      1.1457442E-35
   4.890000      1.1577392E-35
   4.900000      1.1742096E-35
   4.910000      1.2548886E-35
   4.920000      1.4135094E-35
   4.930000      1.6178509E-35
   4.940000      1.8563913E-35
   4.950000      2.1100091E-35
   4.960000      2.3793146E-35
   4.970000      2.6304280E-35
   4.980000      2.8448097E-35
   4.990000      3.0434748E-35
   5.000000      3.2296446E-35
   5.010000      3.3874932E-35
   5.020000      3.5139753E-35
   5.030000      3.6002921E-35
   5.040000      3.6593905E-35
   5.050000      3.7196188E-35
   5.060000      3.8189229E-35
   5.070000      3.9218211E-35
   5.080000      4.0175605E-35
   5.090000      4.1712552E-35
   5.100000      4.3699267E-35
   5.110000      4.5696726E-35
   5.120000      4.7736131E-35
   5.130000      4.8961854E-35
   5.140000      4.9367577E-35
   5.150000      5.0199997E-35
   5.160000      5.1554221E-35
   5.170000      5.1189668E-35
   5.180000      4.8335145E-35
   5.190000      4.4539073E-35
   5.200000      4.0237995E-35
   5.210000      3.5816288E-35
   5.220000      3.1464749E-35
   5.230000      2.7106177E-35
   5.240000      2.5787456E-35
   5.250000      2.7737230E-35
   5.260000      3.0030704E-35
   5.270000      3.2707513E-35
   5.280000      3.5635312E-35
   5.290000      3.8790955E-35
   5.300000      4.1810365E-35
   5.310000      4.4287625E-35
   5.320000      3.5636641E-35
   5.330000      1.3352699E-35
   5.340000     -1.4112088E-35
   5.350000     -4.0784046E-35
   5.360000     -6.3975821E-35
   5.370000     -8.5556870E-35
   5.380000     -1.0413209E-34
   5.390000     -1.1901923E-34
   5.400000     -1.2162041E-34
   5.410000     -1.1345420E-34
   5.420000     -1.0414064E-34
   5.430000     -9.3893403E-35
   5.440000     -8.4035374E-35
   5.450000     -8.2089684E-35
   5.460000     -8.8986667E-35
   5.470000     -9.8805133E-35
   5.480000     -1.1498503E-34
   5.490000     -1.4506369E-34
   5.500000     -1.8346533E-34
   5.510000     -2.2054531E-34
   5.520000     -2.4848334E-34
   5.530000     -2.6854286E-34
   5.540000     -2.8801988E-34
   5.550000     -3.0526342E-34
   5.560000     -3.1987621E-34
   5.570000     -3.2067155E-34
   5.580000     -3.1369885E-34
   5.590000     -3.1525516E-34
   5.600000     -3.2040124E-34
   5.610000     -3.3523643E-34
   5.620000     -3.6151876E-34
   5.630000     -3.9067853E-34
   5.640000     -4.2009739E-34
   5.650000     -4.5125107E-34
   5.660000     -4.8004044E-34
   5.670000     -4.9445540E-34
   5.680000     -4.9758065E-34
   5.690000     -4.8675430E-34
   5.700000     -4.5701062E-34
   5.710000     -4.1443569E-34
   5.720000     -3.6325694E-34
   5.730000     -3.1011107E-34
   5.740000     -2.5988846E-34
   5.750000     -2.1557409E-34
   5.760000     -1.8182816E-34
   5.770000     -1.6027813E-34
   5.780000     -1.5248369E-34
   5.790000     -1.6299113E-34
   5.800000     -1.8403661E-34
   5.810000     -1.9481348E-34
   5.820000     -1.9049163E-34
   5.830000     -1.7143570E-34
   5.840000     -1.3207201E-34
   5.850000     -7.4210881E-35
   5.860000      1.3279996E-36
   5.870000      9.1872919E-35
   5.880000      1.9011214E-34
   5.890000      2.9191887E-34
   5.900000      3.8843784E-34
   5.910000      4.7563105E-34
   5.920000      5.5029932E-34
   5.930000      6.0556781E-34
   5.940000      6.4332505E-34
   5.950000      6.6643527E-34
   5.960000      6.8069641E-34
   5.970000      7.0091629E-34
   5.980000      7.3631189E-34
   5.990000      7.8898538E-34
   6.000000      8.6339105E-34
   6.010000      9.5820339E-34
   6.020000      1.0696648E-33
   6.030000      1.1950109E-33
   6.040000      1.3299071E-33
   6.050000      1.4668392E-33
   6.060000      1.5985996E-33
   6.070000      1.7196232E-33
   6.080000      1.8158603E-33
   6.090000      1.8933012E-33
   6.100000      1.9712159E-33
   6.110000      2.0495987E-33
   6.120000      2.1132024E-33
   6.130000      2.1591065E-33
   6.140000      2.2000203E-33
   6.150000      2.2434223E-33
   6.160000      2.2955179E-33
   6.170000      2.3575230E-33
   6.180000      2.4321514E-33
   6.190000      2.5194978E-33
   6.200000      2.6155602E-33
   6.210000      2.7157323E-33
   6.220000      2.8139346E-33
   6.230000      2.9031695E-33
   6.240000      2.9755759E-33
   6.250000      3.0172966E-33
   6.260000      3.0411980E-33
   6.270000      3.0499470E-33
   6.280000      3.0274324E-33
   6.290000      2.9800115E-33
   6.300000      2.9113706E-33
   6.310000      2.8252153E-33
   6.320000      2.7266756E-33
   6.330000      2.6199976E-33
   6.340000      2.5114112E-33
   6.350000      2.4063159E-33
   6.360000      2.3034873E-33
   6.370000      2.2002031E-33
   6.380000      2.0923987E-33
   6.390000      1.9743912E-33
   6.400000      1.8398129E-33
   6.410000      1.6816664E-33
   6.420000      1.4951169E-33
   6.430000      1.2754140E-33
   6.440000      1.0199913E-33
   6.450000      7.2626362E-34
   6.460000      3.9580543E-34
   6.470000      3.2677216E-35
   6.480000     -3.5799175E-34
   6.490000     -7.6960313E-34
   6.500000     -1.1937644E-33
   6.510000     -1.6305034E-33
   6.520000     -2.0807326E-33
   6.530000     -2.5383175E-33
   6.540000     -3.0044849E-33
   6.550000     -3.4819990E-33
   6.560000     -3.9757026E-33
   6.570000     -4.4917715E-33
   6.580000     -5.0343580E-33
   6.590000     -5.6102077E-33
   6.600000     -6.2275318E-33
   6.610000     -6.8854530E-33
   6.620000     -7.5835078E-33
   6.630000     -8.3223898E-33
   6.640000     -9.0969730E-33
   6.650000     -9.9001728E-33
   6.660000     -1.0723699E-32
   6.670000     -1.1559814E-32
   6.680000     -1.2397954E-32
   6.690000     -1.3231604E-32
   6.700000     -1.4058395E-32
   6.710000     -1.4873655E-32
   6.720000     -1.5673955E-32
   6.730000     -1.6462907E-32
   6.740000     -1.7245901E-32
   6.750000     -1.8025035E-32
   6.760000     -1.8803637E-32
   6.770000     -1.9583247E-32
   6.780000     -2.0364069E-32
   6.790000     -2.1144518E-32
   6.800000     -2.1920016E-32
   6.810000     -2.2682608E-32
   6.820000     -2.3421809E-32
   6.830000     -2.4128248E-32
   6.840000     -2.4791508E-32
   6.850000     -2.5398959E-32
   6.860000     -2.5939152E-32
   6.870000     -2.6403302E-32
   6.880000     -2.6785329E-32
   6.890000     -2.7080627E-32
   6.900000     -2.7286971E-32
   6.910000     -2.7404464E-32
   6.920000     -2.7434052E-32
   6.930000     -2.7377419E-32
   6.940000     -2.7234059E-32
   6.950000     -2.7001149E-32
   6.960000     -2.6674841E-32
   6.970000     -2.6248580E-32
   6.980000     -2.5712902E-32
   6.990000     -2.5055706E-32
   7.000000     -2.4263220E-32
   7.010000     -2.3320644E-32
   7.020000     -2.2214153E-32
   7.030000     -2.0931267E-32
   7.040000     -1.9460995E-32
   7.050000     -1.7795493E-32
   7.060000     -1.5930226E-32