  -2.600000      0.0000000E+00
  -2.590000      0.0000000E+00
  -2.580000      0.0000000E+00
  -2.570000      0.0000000E+00
  -2.560000      0.0000000E+00
  -2.550000      0.0000000E+00
  -2.540000      0.0000000E+00
  -2.530000      0.0000000E+00
  -2.520000      0.0000000E+00
  -2.510000      0.0000000E+00
  -2.500000      0.0000000E+00
  -2.490000      0.0000000E+00
  -2.480000      0.0000000E+00
  -2.470000      0.0000000E+00
  -2.460000      0.0000000E+00
  -2.450000      0.0000000E+00
  -2.440000      0.0000000E+00
  -2.430000      0.0000000E+00
  -2.420000      0.0000000E+00
  -2.410000      0.0000000E+00
  -2.400000      0.0000000E+00
  -2.390000      0.0000000E+00
  -2.380000      0.0000000E+00
  -2.370000      0.0000000E+00
  -2.360000      0.0000000E+00
  -2.350000      0.0000000E+00
  -2.340000      0.0000000E+00
  -2.330000      0.0000000E+00
  -2.320000      0.0000000E+00
  -2.310000      0.0000000E+00
  -2.300000      0.0000000E+00
  -2.290000      0.0000000E+00
  -2.280000      0.0000000E+00
  -2.270000      0.0000000E+00
  -2.260000      0.0000000E+00
  -2.250000      0.0000000E+00
  -2.240000      0.0000000E+00
  -2.230000      0.0000000E+00
  -2.220000      0.0000000E+00
  -2.210000      0.0000000E+00
  -2.200000      0.0000000E+00
  -2.190000      0.0000000E+00
  -2.180000      0.0000000E+00
  -2.170000      0.0000000E+00
  -2.160000      0.0000000E+00
  -2.150000      0.0000000E+00
  -2.140000      0.0000000E+00
  -2.130000      0.0000000E+00
  -2.120000      0.0000000E+00
  -2.110000      0.0000000E+00
  -2.100000      0.0000000E+00
  -2.090000      0.0000000E+00
  -2.080000      0.0000000E+00
  -2.070000      0.0000000E+00
  -2.060000      0.0000000E+00
  -2.050000      0.0000000E+00
  -2.040000      0.0000000E+00
  -2.030000      0.0000000E+00
  -2.020000      0.0000000E+00
  -2.010000      0.0000000E+00
  -2.000000      0.0000000E+00
  -1.990000      0.0000000E+00
  -1.980000      0.0000000E+00
  -1.970000      0.0000000E+00
  -1.960000      0.0000000E+00
  -1.950000      0.0000000E+00
  -1.940000      0.0000000E+00
  -1.930000      0.0000000E+00
  -1.920000      0.0000000E+00
  -1.910000      0.0000000E+00
  -1.900000      0.0000000E+00
  -1.890000      0.0000000E+00
  -1.880000      0.0000000E+00
  -1.870000      0.0000000E+00
  -1.860000      0.0000000E+00
  -1.850000      0.0000000E+00
  -1.840000      0.0000000E+00
  -1.830000      0.0000000E+00
  -1.820000      0.0000000E+00
  -1.810000      0.0000000E+00
  -1.800000      0.0000000E+00
  -1.790000      0.0000000E+00
  -1.780000      0.0000000E+00
  -1.770000      0.0000000E+00
  -1.760000      0.0000000E+00
  -1.750000      0.0000000E+00
  -1.740000      0.0000000E+00
  -1.730000      0.0000000E+00
  -1.720000      0.0000000E+00
  -1.710000      0.0000000E+00
  -1.700000      0.0000000E+00
  -1.690000      0.0000000E+00
  -1.680000      0.0000000E+00
  -1.670000      0.0000000E+00
  -1.660000      0.0000000E+00
  -1.650000      0.0000000E+00
  -1.640000      0.0000000E+00
  -1.630000      0.0000000E+00
  -1.620000      0.0000000E+00
  -1.610000      0.0000000E+00
  -1.600000      0.0000000E+00
  -1.590000      0.0000000E+00
  -1.580000      0.0000000E+00
  -1.570000      0.0000000E+00
  -1.560000      0.0000000E+00
  -1.550000      0.0000000E+00
  -1.540000      0.0000000E+00
  -1.530000      0.0000000E+00
  -1.520000      0.0000000E+00
  -1.510000      0.0000000E+00
  -1.500000      0.0000000E+00
  -1.490000      0.0000000E+00
  -1.480000      0.0000000E+00
  -1.470000      0.0000000E+00
  -1.460000      0.0000000E+00
  -1.450000      0.0000000E+00
  -1.440000      0.0000000E+00
  -1.430000      0.0000000E+00
  -1.420000      0.0000000E+00
  -1.410000      0.0000000E+00
  -1.400000      0.0000000E+00
  -1.390000      0.0000000E+00
  -1.380000      0.0000000E+00
  -1.370000      0.0000000E+00
  -1.360000      0.0000000E+00
  -1.350000      0.0000000E+00
  -1.340000      0.0000000E+00
  -1.330000      0.0000000E+00
  -1.320000      0.0000000E+00
  -1.310000      0.0000000E+00
  -1.300000      0.0000000E+00
  -1.290000      0.0000000E+00
  -1.280000      0.0000000E+00
  -1.270000      0.0000000E+00
  -1.260000      0.0000000E+00
  -1.250000      0.0000000E+00
  -1.240000     -1.2704434E-38
  -1.230000     -2.3333330E-38
  -1.220000     -3.2721283E-38
  -1.210000     -4.0607466E-38
  -1.200000     -4.9216623E-38
  -1.190000     -2.0075593E-38
  -1.180000      5.8421389E-38
  -1.170000      1.5631447E-37
  -1.160000      2.7357193E-37
  -1.150000      3.2304456E-37
  -1.140000      2.9273490E-37
  -1.130000      2.2766089E-37
  -1.120000      1.2718198E-37
  -1.110000      0.0000000E+00
  -1.100000     -2.1710822E-37
  -1.090000     -4.6759567E-37
  -1.080000     -7.1884100E-37
  -1.070000     -9.3631705E-37
  -1.060000     -1.0959190E-36
  -1.050000     -1.1656869E-36
  -1.040000     -1.1371252E-36
  -1.030000     -9.8178567E-37
  -1.020000     -6.4962524E-37
  -1.010000     -2.3712522E-37
  -1.000000      2.1888073E-37
 -0.9900000      8.6311170E-37
 -0.9800000      1.7080444E-36
 -0.9700000      2.7066048E-36
 -0.9600000      4.0224302E-36
 -0.9500000      5.6428679E-36
 -0.9400000      7.6307520E-36
 -0.9300000      1.0067605E-35
 -0.9200000      1.2451365E-35
 -0.9100000      1.3198849E-35
 -0.9000000      1.1815627E-35
 -0.8900000      8.2710319E-36
 -0.8800000      3.9945270E-36
 -0.8700000     -1.1196710E-36
 -0.8600000     -8.5381011E-36
 -0.8500000     -1.6841293E-35
 -0.8400000     -2.6490061E-35
 -0.8300000     -3.6949805E-35
 -0.8200000     -4.7776740E-35
 -0.8100000     -5.8666541E-35
 -0.8000000     -6.8360765E-35
 -0.7900000     -7.6778033E-35
 -0.7800000     -8.2437367E-35
 -0.7700000     -8.3937810E-35
 -0.7600000     -7.9836741E-35
 -0.7500000     -6.8566677E-35
 -0.7400000     -4.8404458E-35
 -0.7300000     -1.7539663E-35
 -0.7200000      2.5047951E-35
 -0.7100000      8.6134245E-35
 -0.7000000      1.6668343E-34
 -0.6900000      2.5361056E-34
 -0.6800000      3.4446849E-34
 -0.6700000      4.4130983E-34
 -0.6600000      5.3771171E-34
 -0.6500000      6.1768164E-34
 -0.6400000      6.6720894E-34
 -0.6300000      6.7916092E-34
 -0.6200000      6.3937558E-34
 -0.6100000      5.4945545E-34
 -0.6000000      4.0590302E-34
 -0.5900000      1.9398736E-34
 -0.5800000     -9.2471371E-35
 -0.5700000     -4.5680073E-34
 -0.5600000     -8.9731370E-34
 -0.5500000     -1.4126373E-33
 -0.5400000     -1.9806564E-33
 -0.5300000     -2.5721969E-33
 -0.5200000     -3.1659490E-33
 -0.5100000     -3.7171949E-33
 -0.5000000     -4.1733289E-33
 -0.4900000     -4.4767990E-33
 -0.4800000     -4.5630218E-33
 -0.4700000     -4.3651737E-33
 -0.4600000     -3.8106081E-33
 -0.4500000     -2.8352024E-33
 -0.4400000     -1.3884959E-33
 -0.4300000      5.6265028E-34
 -0.4200000      3.0307571E-33
 -0.4100000      5.9937267E-33
 -0.4000000      9.3883442E-33
 -0.3900000      1.3106293E-32
 -0.3800000      1.6986450E-32
 -0.3700000      2.0818737E-32
 -0.3600000      2.4343001E-32
 -0.3500000      2.7248979E-32
 -0.3400000      2.9187005E-32
 -0.3300000      2.9779227E-32
 -0.3200000      2.8636118E-32
 -0.3100000      2.5378459E-32
 -0.3000000      1.9661302E-32
 -0.2900000      1.1205419E-32
 -0.2800000     -1.7405959E-34
 -0.2700000     -1.4533039E-32
 -0.2600000     -3.1758216E-32
 -0.2500000     -5.1539491E-32
 -0.2400000     -7.3342149E-32
 -0.2300000     -9.6384218E-32
 -0.2200000     -1.1962530E-31
 -0.2100000     -1.4176350E-31
 -0.2000000     -1.6125140E-31
 -0.1900000     -1.7632931E-31
 -0.1800000     -1.8507316E-31
 -0.1700000     -1.8546510E-31
 -0.1600000     -1.7548407E-31
 -0.1500000     -1.5321616E-31
 -0.1400000     -1.1698198E-31
 -0.1300000     -6.5478603E-32
 -0.1200000      2.0686282E-33
 -0.1100000      8.5750861E-32
 -0.1000000      1.8482388E-31
 -9.0000004E-02  2.9756965E-31
 -7.9999998E-02  4.2117944E-31
 -7.0000000E-02  5.5166871E-31
 -5.9999999E-02  6.8383514E-31
 -5.0000001E-02  8.1126884E-31
 -3.9999999E-02  9.2642459E-31
 -2.9999999E-02  1.0207648E-30
 -2.0000000E-02  1.0849783E-30
 -9.9999998E-03  1.1092791E-30
 -3.4694470E-17  1.0837865E-30
  9.9999998E-03  9.9898353E-31
  2.0000000E-02  8.4624854E-31
  2.9999999E-02  6.1845062E-31
  3.9999999E-02  3.1059455E-31
  5.0000001E-02 -7.9499371E-32
  5.9999999E-02 -5.5050112E-31
  7.0000000E-02 -1.0968839E-30
  7.9999998E-02 -1.7082658E-30
  9.0000004E-02 -2.3688068E-30
  0.1000000     -3.0566825E-30
  0.1100000     -3.7436557E-30
  0.1200000     -4.3947668E-30
  0.1300000     -4.9681567E-30
  0.1400000     -5.4150330E-30
  0.1500000     -5.6797856E-30
  0.1600000     -5.7002523E-30
  0.1700000     -5.4081219E-30
  0.1800000     -4.7294640E-30
  0.1900000     -3.5853830E-30
  0.2000000     -1.8927400E-30
  0.2100000      4.3505399E-31
  0.2200000      3.4872031E-30
  0.2300000      7.3546894E-30
  0.2400000      1.2129450E-29
  0.2500000      1.7903598E-29
  0.2600000      2.4768682E-29
  0.2700000      3.2814996E-29
  0.2800000      4.2130951E-29
  0.2900000      5.2802487E-29
  0.3000000      6.4912446E-29
  0.3100000      7.8540025E-29
  0.3200000      9.3760078E-29
  0.3300000      1.1064238E-28
  0.3400000      1.2925062E-28
  0.3500000      1.4964135E-28
  0.3600000      1.7186266E-28
  0.3700000      1.9595245E-28
  0.3800000      2.2193658E-28
  0.3900000      2.4982670E-28
  0.4000000      2.7961782E-28
  0.4100000      3.1128579E-28
  0.4200000      3.4478453E-28
  0.4300000      3.8004354E-28
  0.4400000      4.1696542E-28
  0.4500000      4.5542379E-28
  0.4600000      4.9526179E-28
  0.4700000      5.3629118E-28
  0.4800000      5.7829268E-28
  0.4900000      6.2101731E-28
  0.5000000      6.6418901E-28
  0.5100000      7.0750861E-28
  0.5200000      7.5065989E-28
  0.5300000      7.9331630E-28
  0.5400000      8.3515054E-28
  0.5500000      8.7584380E-28
  0.5600000      9.1509820E-28
  0.5700000      9.5264882E-28
  0.5800000      9.8827718E-28
  0.5900000      1.0218243E-27
  0.6000000      1.0532044E-27
  0.6100000      1.0824169E-27
  0.6200000      1.1095573E-27
  0.6300000      1.1348276E-27
  0.6400000      1.1585430E-27
  0.6500000      1.1811361E-27
  0.6600000      1.2031590E-27
  0.6700000      1.2252798E-27
  0.6800000      1.2482797E-27
  0.6900000      1.2730439E-27
  0.7000000      1.3005484E-27
  0.7100000      1.3318484E-27
  0.7200000      1.3680607E-27
  0.7300000      1.4103453E-27
  0.7400000      1.4598874E-27
  0.7500000      1.5178786E-27
  0.7600000      1.5854984E-27
  0.7700000      1.6638995E-27
  0.7800000      1.7541921E-27
  0.7900000      1.8574352E-27
  0.8000000      1.9746284E-27
  0.8100000      2.1067104E-27
  0.8200000      2.2545602E-27
  0.8300000      2.4190015E-27
  0.8400000      2.6008120E-27
  0.8500000      2.8007362E-27
  0.8600000      3.0194980E-27
  0.8700000      3.2578160E-27
  0.8800000      3.5164172E-27
  0.8900000      3.7960503E-27
  0.9000000      4.0974922E-27
  0.9100000      4.4215507E-27
  0.9200000      4.7690613E-27
  0.9300000      5.1408848E-27
  0.9400000      5.5378871E-27
  0.9500000      5.9609192E-27
  0.9600000      6.4107864E-27
  0.9700000      6.8882148E-27
  0.9800000      7.3938130E-27
  0.9900000      7.9280305E-27
   1.000000      8.4911124E-27
   1.010000      9.0830631E-27
   1.020000      9.7036116E-27
   1.030000      1.0352181E-26
   1.040000      1.1027873E-26
   1.050000      1.1729463E-26
   1.060000      1.2455408E-26
   1.070000      1.3203878E-26
   1.080000      1.3972805E-26
   1.090000      1.4759942E-26
   1.100000      1.5562921E-26
   1.110000      1.6379349E-26
   1.120000      1.7206918E-26
   1.130000      1.8043498E-26
   1.140000      1.8887256E-26
   1.150000      1.9736745E-26
   1.160000      2.0591012E-26
   1.170000      2.1449655E-26
   1.180000      2.2312897E-26
   1.190000      2.3181621E-26
   1.200000      2.4057372E-26
   1.210000      2.4942335E-26
   1.220000      2.5839273E-26
   1.230000      2.6751460E-26
   1.240000      2.7682556E-26
   1.250000      2.8636467E-26
   1.260000      2.9617197E-26
   1.270000      3.0628674E-26
   1.280000      3.1674593E-26
   1.290000      3.2758235E-26
   1.300000      3.3882328E-26
   1.310000      3.5048908E-26
   1.320000      3.6259233E-26
   1.330000      3.7513723E-26
   1.340000      3.8811920E-26
   1.350000      4.0152558E-26
   1.360000      4.1533594E-26
   1.370000      4.2952339E-26
   1.380000      4.4405643E-26
   1.390000      4.5890042E-26
   1.400000      4.7401974E-26
   1.410000      4.8937954E-26
   1.420000      5.0494829E-26
   1.430000      5.2070003E-26
   1.440000      5.3661437E-26
   1.450000      5.5267879E-26
   1.460000      5.6888871E-26
   1.470000      5.8524654E-26
   1.480000      6.0176060E-26
   1.490000      6.1844298E-26
   1.500000      6.3530673E-26
   1.510000      6.5236282E-26
   1.520000      6.6961521E-26
   1.530000      6.8705569E-26
   1.540000      7.0466060E-26
   1.550000      7.2238588E-26
   1.560000      7.4016162E-26
   1.570000      7.5788850E-26
   1.580000      7.7543474E-26
   1.590000      7.9263493E-26
   1.600000      8.0928846E-26
   1.610000      8.2515948E-26
   1.620000      8.3998014E-26
   1.630000      8.5345351E-26
   1.640000      8.6525950E-26
   1.650000      8.7506091E-26
   1.660000      8.8250985E-26
   1.670000      8.8725762E-26
   1.680000      8.8896205E-26
   1.690000      8.8729713E-26
   1.700000      8.8196104E-26
   1.710000      8.7268212E-26
   1.720000      8.5922483E-26
   1.730000      8.4139479E-26
   1.740000      8.1904143E-26
   1.750000      7.9205832E-26
   1.760000      7.6038013E-26
   1.770000      7.2397753E-26
   1.780000      6.8285076E-26
   1.790000      6.3702336E-26
   1.800000      5.8653472E-26
   1.810000      5.3142582E-26
   1.820000      4.7172850E-26
   1.830000      4.0745624E-26
   1.840000      3.3859346E-26
   1.850000      2.6508931E-26
   1.860000      1.8685238E-26
   1.870000      1.0374512E-26
   1.880000      1.5587765E-27
   1.890000     -7.7836929E-27
   1.900000     -1.7677721E-26
   1.910000     -2.8150199E-26
   1.920000     -3.9228984E-26
   1.930000     -5.0941100E-26
   1.940000     -6.3310679E-26
   1.950000     -7.6357274E-26
   1.960000     -9.0094085E-26
   1.970000     -1.0452625E-25
   1.980000     -1.1964933E-25
   1.990000     -1.3544785E-25
   2.000000     -1.5189471E-25
   2.010000     -1.6895129E-25
   2.020000     -1.8656758E-25
   2.030000     -2.0468236E-25
   2.040000     -2.2322476E-25
   2.050000     -2.4211689E-25
   2.060000     -2.6127571E-25
   2.070000     -2.8061538E-25
   2.080000     -3.0005037E-25
   2.090000     -3.1949845E-25
   2.100000     -3.3888360E-25
   2.110000     -3.5813851E-25
   2.120000     -3.7720641E-25
   2.130000     -3.9604242E-25
   2.140000     -4.1461509E-25
   2.150000     -4.3290655E-25
   2.160000     -4.5091102E-25
   2.170000     -4.6863352E-25
   2.180000     -4.8608874E-25
   2.190000     -5.0329671E-25
   2.200000     -5.2027911E-25
   2.210000     -5.3705621E-25
   2.220000     -5.5364240E-25
   2.230000     -5.7004193E-25
   2.240000     -5.8624479E-25
   2.250000     -6.0222347E-25
   2.260000     -6.1793003E-25
   2.270000     -6.3329522E-25
   2.280000     -6.4822742E-25
   2.290000     -6.6261313E-25
   2.300000     -6.7631930E-25
   2.310000     -6.8919558E-25
   2.320000     -7.0107991E-25
   2.330000     -7.1180349E-25
   2.340000     -7.2119666E-25
   2.350000     -7.2909626E-25
   2.360000     -7.3535232E-25
   2.370000     -7.3983493E-25
   2.380000     -7.4244093E-25
   2.390000     -7.4309830E-25
   2.400000     -7.4177054E-25
   2.410000     -7.3846014E-25
   2.420000     -7.3320844E-25
   2.430000     -7.2609558E-25
   2.440000     -7.1723741E-25
   2.450000     -7.0678086E-25
   2.460000     -6.9489766E-25
   2.470000     -6.8177777E-25
   2.480000     -6.6762003E-25
   2.490000     -6.5262339E-25
   2.500000     -6.3697836E-25
   2.510000     -6.2085749E-25
   2.520000     -6.0440851E-25
   2.530000     -5.8774821E-25
   2.540000     -5.7095785E-25
   2.550000     -5.5408190E-25
   2.560000     -5.3712834E-25
   2.570000     -5.2007203E-25
   2.580000     -5.0286101E-25
   2.590000     -4.8542447E-25
   2.600000     -4.6768314E-25
   2.610000     -4.4956153E-25
   2.620000     -4.3099973E-25
   2.630000     -4.1196782E-25
   2.640000     -3.9247829E-25
   2.650000     -3.7259747E-25
   2.660000     -3.5245474E-25
   2.670000     -3.3224965E-25
   2.680000     -3.1225585E-25
   2.690000     -2.9282009E-25
   2.700000     -2.7435848E-25
   2.710000     -2.5734999E-25
   2.720000     -2.4232394E-25
   2.730000     -2.2984382E-25
   2.740000     -2.2049007E-25
   2.750000     -2.1483973E-25
   2.760000     -2.1344377E-25
   2.770000     -2.1680587E-25
   2.780000     -2.2536082E-25
   2.790000     -2.3945525E-25
   2.800000     -2.5933132E-25
   2.810000     -2.8511381E-25
   2.820000     -3.1680168E-25
   2.830000     -3.5426508E-25
   2.840000     -3.9724691E-25
   2.850000     -4.4537065E-25
   2.860000     -4.9815343E-25
   2.870000     -5.5502099E-25
   2.880000     -6.1532797E-25
   2.890000     -6.7838079E-25
   2.900000     -7.4346028E-25
   2.910000     -8.0984367E-25
   2.920000     -8.7682531E-25
   2.930000     -9.4373471E-25
   2.940000     -1.0099483E-24
   2.950000     -1.0748966E-24
   2.960000     -1.1380648E-24
   2.970000     -1.1989852E-24
   2.980000     -1.2572238E-24
   2.990000     -1.3123596E-24
   3.000000     -1.3639553E-24
   3.010000     -1.4115289E-24
   3.020000     -1.4545175E-24
   3.030000     -1.4922374E-24
   3.040000     -1.5238491E-24
   3.050000     -1.5483224E-24
   3.060000     -1.5644037E-24
   3.070000     -1.5705931E-24
   3.080000     -1.5651286E-24
   3.090000     -1.5459776E-24
   3.100000     -1.5108401E-24
   3.110000     -1.4571632E-24
   3.120000     -1.3821660E-24
   3.130000     -1.2828754E-24
   3.140000     -1.1561708E-24
   3.150000     -9.9883596E-25
   3.160000     -8.0761484E-25
   3.170000     -5.7927244E-25
   3.180000     -3.1065880E-25
   3.190000      1.2342064E-27
   3.200000      3.5922186E-25
   3.210000      7.6587912E-25
   3.220000      1.2235047E-24
   3.230000      1.7340946E-24
   3.240000      2.2993262E-24
   3.250000      2.9205585E-24
   3.260000      3.5988442E-24
   3.270000      4.3349500E-24
   3.280000      5.1293846E-24
   3.290000      5.9824328E-24
   3.300000      6.8941954E-24
   3.310000      7.8646261E-24
   3.320000      8.8935634E-24
   3.330000      9.9807549E-24
   3.340000      1.1125880E-23
   3.350000      1.2328543E-23
   3.360000      1.3588251E-23
   3.370000      1.4904388E-23
   3.380000      1.6276158E-23
   3.390000      1.7702517E-23
   3.400000      1.9182068E-23
   3.410000      2.0712971E-23
   3.420000      2.2292815E-23
   3.430000      2.3918490E-23
   3.440000      2.5586061E-23
   3.450000      2.7290643E-23
   3.460000      2.9026257E-23
   3.470000      3.0785735E-23
   3.480000      3.2560616E-23
   3.490000      3.4341062E-23
   3.500000      3.6115810E-23
   3.510000      3.7872123E-23
   3.520000      3.9595807E-23
   3.530000      4.1271199E-23
   3.540000      4.2881229E-23
   3.550000      4.4407473E-23
   3.560000      4.5830222E-23
   3.570000      4.7128564E-23
   3.580000      4.8280484E-23
   3.590000      4.9262950E-23
   3.600000      5.0052016E-23
   3.610000      5.0622867E-23
   3.620000      5.0949901E-23
   3.630000      5.1006752E-23
   3.640000      5.0766298E-23
   3.650000      5.0200666E-23
   3.660000      4.9281223E-23
   3.670000      4.7978470E-23
   3.680000      4.6262025E-23
   3.690000      4.4100521E-23
   3.700000      4.1461513E-23
   3.710000      3.8311418E-23
   3.720000      3.4615428E-23
   3.730000      3.0337476E-23
   3.740000      2.5440221E-23
   3.750000      1.9885047E-23
   3.760000      1.3632144E-23
   3.770000      6.6405790E-24
   3.780000     -1.1315195E-24
   3.790000     -9.7267291E-24
   3.800000     -1.9188112E-23
   3.810000     -2.9558864E-23
   3.820000     -4.0881962E-23
   3.830000     -5.3199782E-23
   3.840000     -6.6553658E-23
   3.850000     -8.0983419E-23
   3.860000     -9.6526983E-23
   3.870000     -1.1321982E-22
   3.880000     -1.3109453E-22
   3.890000     -1.5018045E-22
   3.900000     -1.7050312E-22
   3.910000     -1.9208406E-22
   3.920000     -2.1494024E-22
   3.930000     -2.3908387E-22
   3.940000     -2.6452200E-22
   3.950000     -2.9125628E-22
   3.960000     -3.1928275E-22
   3.970000     -3.4859155E-22
   3.980000     -3.7916661E-22
   3.990000     -4.1098535E-22
   4.000000     -4.4401848E-22
   4.010000     -4.7822954E-22
   4.020000     -5.1357470E-22
   4.030000     -5.5000205E-22
   4.040000     -5.8745111E-22
   4.050000     -6.2585256E-22
   4.060000     -6.6512713E-22
   4.070000     -7.0518520E-22
   4.080000     -7.4592597E-22
   4.090000     -7.8723653E-22
   4.100000     -8.2899133E-22
   4.110000     -8.7105087E-22
   4.120000     -9.1326101E-22
   4.130000     -9.5545237E-22
   4.140000     -9.9743926E-22
   4.150000     -1.0390191E-21
   4.160000     -1.0799716E-21
   4.170000     -1.1200581E-21
   4.180000     -1.1590213E-21
   4.190000     -1.1965846E-21
   4.200000     -1.2324525E-21
   4.210000     -1.2663091E-21
   4.220000     -1.2978193E-21
   4.230000     -1.3266287E-21
   4.240000     -1.3523630E-21
   4.250000     -1.3746288E-21
   4.260000     -1.3930142E-21
   4.270000     -1.4070881E-21
   4.280000     -1.4164015E-21
   4.290000     -1.4204874E-21
   4.300000     -1.4188621E-21
   4.310000     -1.4110244E-21
   4.320000     -1.3964570E-21
   4.330000     -1.3746267E-21
   4.340000     -1.3449851E-21
   4.350000     -1.3069692E-21
   4.360000     -1.2600016E-21
   4.370000     -1.2034920E-21
   4.380000     -1.1368374E-21
   4.390000     -1.0594232E-21
   4.400000     -9.7062486E-22
   4.410000     -8.6980909E-22
   4.420000     -7.5633495E-22
   4.430000     -6.2955578E-22
   4.440000     -4.8882184E-22
   4.450000     -3.3348273E-22
   4.460000     -1.6288996E-22
   4.470000      2.3600853E-23
   4.480000      2.2662613E-22
   4.490000      4.4681046E-22
   4.500000      6.8476267E-22
   4.510000      9.4107193E-22
   4.520000      1.2163044E-21
   4.530000      1.5109971E-21
   4.540000      1.8256539E-21
   4.550000      2.1607402E-21
   4.560000      2.5166784E-21
   4.570000      2.8938431E-21
   4.580000      3.2925541E-21
   4.590000      3.7130720E-21
   4.600000      4.1555942E-21
   4.610000      4.6202476E-21
   4.620000      5.1070822E-21
   4.630000      5.6160676E-21
   4.640000      6.1470865E-21
   4.650000      6.6999291E-21
   4.660000      7.2742861E-21
   4.670000      7.8697414E-21
   4.680000      8.4857704E-21
   4.690000      9.1217318E-21
   4.700000      9.7768548E-21
   4.710000      1.0450240E-20
   4.720000      1.1140851E-20
   4.730000      1.1847500E-20
   4.740000      1.2568854E-20
   4.750000      1.3303417E-20
   4.760000      1.4049524E-20
   4.770000      1.4805333E-20
   4.780000      1.5568820E-20
   4.790000      1.6337778E-20
   4.800000      1.7109795E-20
   4.810000      1.7882259E-20
   4.820000      1.8652351E-20
   4.830000      1.9417034E-20
   4.840000      2.0173051E-20
   4.850000      2.0916916E-20
   4.860000      2.1644913E-20
   4.870000      2.2353092E-20
   4.880000      2.3037271E-20
   4.890000      2.3693025E-20
   4.900000      2.4315691E-20
   4.910000      2.4900369E-20
   4.920000      2.5441916E-20
   4.930000      2.5934946E-20
   4.940000      2.6373841E-20
   4.950000      2.6752753E-20
   4.960000      2.7065598E-20
   4.970000      2.7306072E-20
   4.980000      2.7467647E-20
   4.990000      2.7543589E-20
   5.000000      2.7526962E-20
   5.010000      2.7410623E-20
   5.020000      2.7187252E-20
   5.030000      2.6849363E-20
   5.040000      2.6389306E-20
   5.050000      2.5799290E-20
   5.060000      2.5071395E-20
   5.070000      2.4197589E-20
   5.080000      2.3169747E-20
   5.090000      2.1979677E-20
   5.100000      2.0619149E-20
   5.110000      1.9079914E-20
   5.120000      1.7353727E-20
   5.130000      1.5432394E-20
   5.140000      1.3307782E-20
   5.150000      1.0971870E-20
   5.160000      8.4167841E-21
   5.170000      5.6348278E-21
   5.180000      2.6185250E-21
   5.190000     -6.3933347E-22
   5.200000     -4.1456491E-21
   5.210000     -7.9069549E-21
   5.220000     -1.1929381E-20
   5.230000     -1.6218595E-20
   5.240000     -2.0779756E-20
   5.250000     -2.5617454E-20
   5.260000     -3.0735663E-20
   5.270000     -3.6137682E-20
   5.280000     -4.1826061E-20
   5.290000     -4.7802561E-20
   5.300000     -5.4068060E-20
   5.310000     -6.0622516E-20
   5.320000     -6.7464877E-20
   5.330000     -7.4593073E-20
   5.340000     -8.2003881E-20
   5.350000     -8.9692913E-20
   5.360000     -9.7654468E-20
   5.370000     -1.0588155E-19
   5.380000     -1.1436577E-19
   5.390000     -1.2309726E-19
   5.400000     -1.3206459E-19
   5.410000     -1.4125478E-19
   5.420000     -1.5065311E-19
   5.430000     -1.6024319E-19
   5.440000     -1.7000671E-19
   5.450000     -1.7992357E-19
   5.460000     -1.8997171E-19
   5.470000     -2.0012706E-19
   5.480000     -2.1036348E-19
   5.490000     -2.2065273E-19
   5.500000     -2.3096436E-19
   5.510000     -2.4126581E-19
   5.520000     -2.5152210E-19
   5.530000     -2.6169614E-19
   5.540000     -2.7174835E-19
   5.550000     -2.8163690E-19
   5.560000     -2.9131753E-19
   5.570000     -3.0074361E-19
   5.580000     -3.0986615E-19
   5.590000     -3.1863375E-19
   5.600000     -3.2699266E-19
   5.610000     -3.3488676E-19
   5.620000     -3.4225753E-19
   5.630000     -3.4904424E-19
   5.640000     -3.5518376E-19
   5.650000     -3.6061086E-19
   5.660000     -3.6525830E-19
   5.670000     -3.6905658E-19
   5.680000     -3.7193429E-19
   5.690000     -3.7381820E-19
   5.700000     -3.7463320E-19
   5.710000     -3.7430277E-19
   5.720000     -3.7274881E-19
   5.730000     -3.6989188E-19
   5.740000     -3.6565144E-19
   5.750000     -3.5994591E-19
   5.760000     -3.5269309E-19
   5.770000     -3.4381007E-19
   5.780000     -3.3321373E-19
   5.790000     -3.2082094E-19
   5.800000     -3.0654866E-19
   5.810000     -2.9031444E-19
   5.820000     -2.7203665E-19
   5.830000     -2.5163473E-19
   5.840000     -2.2902966E-19
   5.850000     -2.0414416E-19
   5.860000     -1.7690306E-19
   5.870000     -1.4723385E-19
   5.880000     -1.1506692E-19
   5.890000     -8.0336053E-20
   5.900000     -4.2978783E-20
   5.910000     -2.9370342E-21
   5.920000      3.9842663E-20
   5.930000      8.5408544E-20
   5.940000      1.3380300E-19
   5.950000      1.8506230E-19
   5.960000      2.3921601E-19
   5.970000      2.9628651E-19
   5.980000      3.5628835E-19
   5.990000      4.1922777E-19
   6.000000      4.8510219E-19
   6.010000      5.5389963E-19
   6.020000      6.2559814E-19
   6.030000      7.0016522E-19
   6.040000      7.7755732E-19
   6.050000      8.5771883E-19
   6.060000      9.4058201E-19
   6.070000      1.0260667E-18
   6.080000      1.1140790E-18
   6.090000      1.2045111E-18
   6.100000      1.2972407E-18
   6.110000      1.3921305E-18
   6.120000      1.4890277E-18
   6.130000      1.5877632E-18
   6.140000      1.6881513E-18
   6.150000      1.7899897E-18
   6.160000      1.8930587E-18
   6.170000      1.9971205E-18
   6.180000      2.1019195E-18
   6.190000      2.2071811E-18
   6.200000      2.3126125E-18
   6.210000      2.4179017E-18
   6.220000      2.5227170E-18
   6.230000      2.6267081E-18
   6.240000      2.7295049E-18
   6.250000      2.8307175E-18
   6.260000      2.9299368E-18
   6.270000      3.0267335E-18
   6.280000      3.1206590E-18
   6.290000      3.2112462E-18
   6.300000      3.2980088E-18
   6.310000      3.3804415E-18
   6.320000      3.4580219E-18
   6.330000      3.5302087E-18
   6.340000      3.5964440E-18
   6.350000      3.6561553E-18
   6.360000      3.7087515E-18
   6.370000      3.7536286E-18
   6.380000      3.7901685E-18
   6.390000      3.8177396E-18
   6.400000      3.8357002E-18
   6.410000      3.8433979E-18
   6.420000      3.8401699E-18
   6.430000      3.8253468E-18
   6.440000      3.7982537E-18
   6.450000      3.7582120E-18
   6.460000      3.7045395E-18
   6.470000      3.6365536E-18
   6.480000      3.5535741E-18
   6.490000      3.4549250E-18
   6.500000      3.3399359E-18
   6.510000      3.2079458E-18
   6.520000      3.0583045E-18
   6.530000      2.8903746E-18
   6.540000      2.7035360E-18
   6.550000      2.4971882E-18
   6.560000      2.2707504E-18
   6.570000      2.0236695E-18
   6.580000      1.7554208E-18
   6.590000      1.4655107E-18
   6.600000      1.1534808E-18
   6.610000      8.1891082E-19
   6.620000      4.6142321E-19
   6.630000      8.0685685E-20
   6.640000     -3.2358551E-19
   6.650000     -7.5162004E-19
   6.660000     -1.2035903E-18
   6.670000     -1.6796094E-18
   6.680000     -2.1797258E-18
   6.690000     -2.7039209E-18
   6.700000     -3.2521036E-18
   6.710000     -3.8241056E-18
   6.720000     -4.4196802E-18
   6.730000     -5.0384928E-18
   6.740000     -5.6801260E-18
   6.750000     -6.3440692E-18
   6.760000     -7.0297142E-18
   6.770000     -7.7363564E-18
   6.780000     -8.4631868E-18
   6.790000     -9.2092896E-18
   6.800000     -9.9736426E-18
   6.810000     -1.0755109E-17
   6.820000     -1.1552439E-17
   6.830000     -1.2364263E-17
   6.840000     -1.3189088E-17
   6.850000     -1.4025301E-17
   6.860000     -1.4871157E-17
   6.870000     -1.5724794E-17
   6.880000     -1.6584209E-17
   6.890000     -1.7447272E-17
   6.900000     -1.8311721E-17
   6.910000     -1.9175157E-17
   6.920000     -2.0035051E-17
   6.930000     -2.0888741E-17
   6.940000     -2.1733428E-17
   6.950000     -2.2566184E-17
   6.960000     -2.3383944E-17
   6.970000     -2.4183519E-17
   6.980000     -2.4961583E-17
   6.990000     -2.5714696E-17
   7.000000     -2.6439286E-17
   7.010000     -2.7131670E-17
   7.020000     -2.7788044E-17
   7.030000     -2.8404495E-17
   7.040000     -2.8977004E-17
   7.050000     -2.9501456E-17
   7.060000     -2.9973637E-17