  -2.600000      0.0000000E+00
  -2.590000      0.0000000E+00
  -2.580000      0.0000000E+00
  -2.570000      0.0000000E+00
  -2.560000      0.0000000E+00
  -2.550000      0.0000000E+00
  -2.540000      0.0000000E+00
  -2.530000      0.0000000E+00
  -2.520000      0.0000000E+00
  -2.510000      0.0000000E+00
  -2.500000      0.0000000E+00
  -2.490000      0.0000000E+00
  -2.480000      0.0000000E+00
  -2.470000      0.0000000E+00
  -2.460000      0.0000000E+00
  -2.450000      0.0000000E+00
  -2.440000      0.0000000E+00
  -2.430000      0.0000000E+00
  -2.420000      0.0000000E+00
  -2.410000      0.0000000E+00
  -2.400000      0.0000000E+00
  -2.390000      0.0000000E+00
  -2.380000      0.0000000E+00
  -2.370000      0.0000000E+00
  -2.360000      0.0000000E+00
  -2.350000      0.0000000E+00
  -2.340000      0.0000000E+00
  -2.330000      0.0000000E+00
  -2.320000      0.0000000E+00
  -2.310000      0.0000000E+00
  -2.300000      0.0000000E+00
  -2.290000      0.0000000E+00
  -2.280000      0.0000000E+00
  -2.270000      0.0000000E+00
  -2.260000      0.0000000E+00
  -2.250000      0.0000000E+00
  -2.240000      0.0000000E+00
  -2.230000      0.0000000E+00
  -2.220000      0.0000000E+00
  -2.210000      0.0000000E+00
  -2.200000      0.0000000E+00
  -2.190000      0.0000000E+00
  -2.180000      0.0000000E+00
  -2.170000      0.0000000E+00
  -2.160000      0.0000000E+00
  -2.150000      0.0000000E+00
  -2.140000      0.0000000E+00
  -2.130000      0.0000000E+00
  -2.120000      0.0000000E+00
  -2.110000      0.0000000E+00
  -2.100000      0.0000000E+00
  -2.090000      0.0000000E+00
  -2.080000      0.0000000E+00
  -2.070000      0.0000000E+00
  -2.060000      0.0000000E+00
  -2.050000      0.0000000E+00
  -2.040000      0.0000000E+00
  -2.030000      0.0000000E+00
  -2.020000      0.0000000E+00
  -2.010000      0.0000000E+00
  -2.000000      0.0000000E+00
  -1.990000      0.0000000E+00
  -1.980000      0.0000000E+00
  -1.970000      0.0000000E+00
  -1.960000      0.0000000E+00
  -1.950000      0.0000000E+00
  -1.940000      0.0000000E+00
  -1.930000      0.0000000E+00
  -1.920000      0.0000000E+00
  -1.910000      0.0000000E+00
  -1.900000      0.0000000E+00
  -1.890000      0.0000000E+00
  -1.880000      0.0000000E+00
  -1.870000      0.0000000E+00
  -1.860000      0.0000000E+00
  -1.850000      0.0000000E+00
  -1.840000      0.0000000E+00
  -1.830000      0.0000000E+00
  -1.820000      0.0000000E+00
  -1.810000      0.0000000E+00
  -1.800000      0.0000000E+00
  -1.790000      0.0000000E+00
  -1.780000      0.0000000E+00
  -1.770000      0.0000000E+00
  -1.760000      0.0000000E+00
  -1.750000      0.0000000E+00
  -1.740000      0.0000000E+00
  -1.730000      0.0000000E+00
  -1.720000      0.0000000E+00
  -1.710000      0.0000000E+00
  -1.700000      0.0000000E+00
  -1.690000      0.0000000E+00
  -1.680000      0.0000000E+00
  -1.670000      0.0000000E+00
  -1.660000      0.0000000E+00
  -1.650000      0.0000000E+00
  -1.640000      0.0000000E+00
  -1.630000      0.0000000E+00
  -1.620000      0.0000000E+00
  -1.610000      0.0000000E+00
  -1.600000      0.0000000E+00
  -1.590000      0.0000000E+00
  -1.580000      0.0000000E+00
  -1.570000      0.0000000E+00
  -1.560000      0.0000000E+00
  -1.550000      0.0000000E+00
  -1.540000      0.0000000E+00
  -1.530000      0.0000000E+00
  -1.520000      0.0000000E+00
  -1.510000      0.0000000E+00
  -1.500000      0.0000000E+00
  -1.490000      0.0000000E+00
  -1.480000      0.0000000E+00
  -1.470000      0.0000000E+00
  -1.460000      0.0000000E+00
  -1.450000      0.0000000E+00
  -1.440000      0.0000000E+00
  -1.430000      0.0000000E+00
  -1.420000      0.0000000E+00
  -1.410000      0.0000000E+00
  -1.400000      0.0000000E+00
  -1.390000      0.0000000E+00
  -1.380000      0.0000000E+00
  -1.370000      0.0000000E+00
  -1.360000      0.0000000E+00
  -1.350000      0.0000000E+00
  -1.340000      0.0000000E+00
  -1.330000      0.0000000E+00
  -1.320000      0.0000000E+00
  -1.310000      0.0000000E+00
  -1.300000      0.0000000E+00
  -1.290000      0.0000000E+00
  -1.280000      0.0000000E+00
  -1.270000      0.0000000E+00
  -1.260000      0.0000000E+00
  -1.250000      0.0000000E+00
  -1.240000      0.0000000E+00
  -1.230000      0.0000000E+00
  -1.220000      0.0000000E+00
  -1.210000      0.0000000E+00
  -1.200000      0.0000000E+00
  -1.190000      0.0000000E+00
  -1.180000      0.0000000E+00
  -1.170000      0.0000000E+00
  -1.160000      0.0000000E+00
  -1.150000      0.0000000E+00
  -1.140000      0.0000000E+00
  -1.130000      0.0000000E+00
  -1.120000      0.0000000E+00
  -1.110000      0.0000000E+00
  -1.100000      0.0000000E+00
  -1.090000      0.0000000E+00
  -1.080000      0.0000000E+00
  -1.070000      0.0000000E+00
  -1.060000      0.0000000E+00
  -1.050000      0.0000000E+00
  -1.040000      0.0000000E+00
  -1.030000      0.0000000E+00
  -1.020000      0.0000000E+00
  -1.010000      0.0000000E+00
  -1.000000      0.0000000E+00
 -0.9900000      0.0000000E+00
 -0.9800000      0.0000000E+00
 -0.9700000      0.0000000E+00
 -0.9600000      0.0000000E+00
 -0.9500000      0.0000000E+00
 -0.9400000      0.0000000E+00
 -0.9300000      0.0000000E+00
 -0.9200000      0.0000000E+00
 -0.9100000      0.0000000E+00
 -0.9000000      0.0000000E+00
 -0.8900000      0.0000000E+00
 -0.8800000      0.0000000E+00
 -0.8700000      0.0000000E+00
 -0.8600000      0.0000000E+00
 -0.8500000      0.0000000E+00
 -0.8400000      0.0000000E+00
 -0.8300000      0.0000000E+00
 -0.8200000      0.0000000E+00
 -0.8100000      0.0000000E+00
 -0.8000000      0.0000000E+00
 -0.7900000      0.0000000E+00
 -0.7800000      0.0000000E+00
 -0.7700000      0.0000000E+00
 -0.7600000      0.0000000E+00
 -0.7500000      0.0000000E+00
 -0.7400000      0.0000000E+00
 -0.7300000      0.0000000E+00
 -0.7200000      0.0000000E+00
 -0.7100000      0.0000000E+00
 -0.7000000      0.0000000E+00
 -0.6900000      0.0000000E+00
 -0.6800000      0.0000000E+00
 -0.6700000      0.0000000E+00
 -0.6600000      0.0000000E+00
 -0.6500000      0.0000000E+00
 -0.6400000      0.0000000E+00
 -0.6300000      0.0000000E+00
 -0.6200000      0.0000000E+00
 -0.6100000      0.0000000E+00
 -0.6000000      0.0000000E+00
 -0.5900000      0.0000000E+00
 -0.5800000      0.0000000E+00
 -0.5700000      0.0000000E+00
 -0.5600000      0.0000000E+00
 -0.5500000      0.0000000E+00
 -0.5400000      0.0000000E+00
 -0.5300000      0.0000000E+00
 -0.5200000      0.0000000E+00
 -0.5100000      0.0000000E+00
 -0.5000000      0.0000000E+00
 -0.4900000      0.0000000E+00
 -0.4800000      0.0000000E+00
 -0.4700000      0.0000000E+00
 -0.4600000      0.0000000E+00
 -0.4500000      0.0000000E+00
 -0.4400000      0.0000000E+00
 -0.4300000      0.0000000E+00
 -0.4200000      0.0000000E+00
 -0.4100000      0.0000000E+00
 -0.4000000      0.0000000E+00
 -0.3900000      0.0000000E+00
 -0.3800000      0.0000000E+00
 -0.3700000      0.0000000E+00
 -0.3600000      0.0000000E+00
 -0.3500000      0.0000000E+00
 -0.3400000      0.0000000E+00
 -0.3300000      0.0000000E+00
 -0.3200000      0.0000000E+00
 -0.3100000      0.0000000E+00
 -0.3000000      0.0000000E+00
 -0.2900000      0.0000000E+00
 -0.2800000      0.0000000E+00
 -0.2700000      0.0000000E+00
 -0.2600000      0.0000000E+00
 -0.2500000      0.0000000E+00
 -0.2400000      0.0000000E+00
 -0.2300000      0.0000000E+00
 -0.2200000      0.0000000E+00
 -0.2100000      0.0000000E+00
 -0.2000000      0.0000000E+00
 -0.1900000      0.0000000E+00
 -0.1800000      0.0000000E+00
 -0.1700000      0.0000000E+00
 -0.1600000      0.0000000E+00
 -0.1500000      0.0000000E+00
 -0.1400000      0.0000000E+00
 -0.1300000      0.0000000E+00
 -0.1200000      0.0000000E+00
 -0.1100000      0.0000000E+00
 -0.1000000      0.0000000E+00
 -9.0000004E-02  0.0000000E+00
 -7.9999998E-02  0.0000000E+00
 -7.0000000E-02  0.0000000E+00
 -5.9999999E-02  0.0000000E+00
 -5.0000001E-02  0.0000000E+00
 -3.9999999E-02  0.0000000E+00
 -2.9999999E-02  0.0000000E+00
 -2.0000000E-02  0.0000000E+00
 -9.9999998E-03  0.0000000E+00
 -3.4694470E-17  0.0000000E+00
  9.9999998E-03  0.0000000E+00
  2.0000000E-02  0.0000000E+00
  2.9999999E-02  0.0000000E+00
  3.9999999E-02  0.0000000E+00
  5.0000001E-02  0.0000000E+00
  5.9999999E-02  0.0000000E+00
  7.0000000E-02  0.0000000E+00
  7.9999998E-02  0.0000000E+00
  9.0000004E-02  0.0000000E+00
  0.1000000      0.0000000E+00
  0.1100000      0.0000000E+00
  0.1200000      0.0000000E+00
  0.1300000      0.0000000E+00
  0.1400000      0.0000000E+00
  0.1500000      0.0000000E+00
  0.1600000      0.0000000E+00
  0.1700000      0.0000000E+00
  0.1800000      0.0000000E+00
  0.1900000      0.0000000E+00
  0.2000000      0.0000000E+00
  0.2100000      0.0000000E+00
  0.2200000      0.0000000E+00
  0.2300000      0.0000000E+00
  0.2400000      0.0000000E+00
  0.2500000      0.0000000E+00
  0.2600000      0.0000000E+00
  0.2700000      0.0000000E+00
  0.2800000      0.0000000E+00
  0.2900000      0.0000000E+00
  0.3000000      0.0000000E+00
  0.3100000      0.0000000E+00
  0.3200000      0.0000000E+00
  0.3300000      0.0000000E+00
  0.3400000      0.0000000E+00
  0.3500000      0.0000000E+00
  0.3600000      0.0000000E+00
  0.3700000      0.0000000E+00
  0.3800000      0.0000000E+00
  0.3900000      0.0000000E+00
  0.4000000      0.0000000E+00
  0.4100000      0.0000000E+00
  0.4200000      0.0000000E+00
  0.4300000      0.0000000E+00
  0.4400000      0.0000000E+00
  0.4500000      0.0000000E+00
  0.4600000      0.0000000E+00
  0.4700000      0.0000000E+00
  0.4800000      0.0000000E+00
  0.4900000      0.0000000E+00
  0.5000000      0.0000000E+00
  0.5100000      0.0000000E+00
  0.5200000      0.0000000E+00
  0.5300000      0.0000000E+00
  0.5400000      0.0000000E+00
  0.5500000      0.0000000E+00
  0.5600000      0.0000000E+00
  0.5700000      0.0000000E+00
  0.5800000      0.0000000E+00
  0.5900000      0.0000000E+00
  0.6000000      0.0000000E+00
  0.6100000      0.0000000E+00
  0.6200000      0.0000000E+00
  0.6300000      0.0000000E+00
  0.6400000      0.0000000E+00
  0.6500000      0.0000000E+00
  0.6600000      0.0000000E+00
  0.6700000      0.0000000E+00
  0.6800000      0.0000000E+00
  0.6900000      0.0000000E+00
  0.7000000      0.0000000E+00
  0.7100000      0.0000000E+00
  0.7200000      0.0000000E+00
  0.7300000      0.0000000E+00
  0.7400000      0.0000000E+00
  0.7500000      0.0000000E+00
  0.7600000      0.0000000E+00
  0.7700000      0.0000000E+00
  0.7800000      0.0000000E+00
  0.7900000      0.0000000E+00
  0.8000000      0.0000000E+00
  0.8100000      0.0000000E+00
  0.8200000      0.0000000E+00
  0.8300000      0.0000000E+00
  0.8400000      0.0000000E+00
  0.8500000      0.0000000E+00
  0.8600000      0.0000000E+00
  0.8700000      0.0000000E+00
  0.8800000      0.0000000E+00
  0.8900000      0.0000000E+00
  0.9000000      0.0000000E+00
  0.9100000      0.0000000E+00
  0.9200000      0.0000000E+00
  0.9300000      0.0000000E+00
  0.9400000      0.0000000E+00
  0.9500000      0.0000000E+00
  0.9600000      0.0000000E+00
  0.9700000      0.0000000E+00
  0.9800000      0.0000000E+00
  0.9900000      0.0000000E+00
   1.000000      0.0000000E+00
   1.010000      0.0000000E+00
   1.020000      0.0000000E+00
   1.030000      0.0000000E+00
   1.040000      0.0000000E+00
   1.050000      0.0000000E+00
   1.060000      0.0000000E+00
   1.070000      0.0000000E+00
   1.080000      0.0000000E+00
   1.090000      0.0000000E+00
   1.100000      0.0000000E+00
   1.110000      0.0000000E+00
   1.120000      0.0000000E+00
   1.130000      0.0000000E+00
   1.140000      0.0000000E+00
   1.150000      0.0000000E+00
   1.160000      0.0000000E+00
   1.170000      0.0000000E+00
   1.180000      0.0000000E+00
   1.190000      0.0000000E+00
   1.200000      0.0000000E+00
   1.210000      0.0000000E+00
   1.220000      0.0000000E+00
   1.230000      0.0000000E+00
   1.240000      0.0000000E+00
   1.250000      0.0000000E+00
   1.260000      0.0000000E+00
   1.270000      0.0000000E+00
   1.280000      0.0000000E+00
   1.290000      0.0000000E+00
   1.300000      0.0000000E+00
   1.310000      0.0000000E+00
   1.320000      0.0000000E+00
   1.330000      0.0000000E+00
   1.340000      0.0000000E+00
   1.350000      0.0000000E+00
   1.360000      0.0000000E+00
   1.370000      0.0000000E+00
   1.380000      0.0000000E+00
   1.390000      0.0000000E+00
   1.400000      0.0000000E+00
   1.410000      0.0000000E+00
   1.420000      0.0000000E+00
   1.430000      0.0000000E+00
   1.440000      0.0000000E+00
   1.450000      0.0000000E+00
   1.460000      0.0000000E+00
   1.470000      0.0000000E+00
   1.480000      0.0000000E+00
   1.490000      0.0000000E+00
   1.500000      0.0000000E+00
   1.510000      0.0000000E+00
   1.520000      0.0000000E+00
   1.530000      0.0000000E+00
   1.540000      0.0000000E+00
   1.550000      0.0000000E+00
   1.560000      0.0000000E+00
   1.570000      0.0000000E+00
   1.580000      0.0000000E+00
   1.590000      0.0000000E+00
   1.600000      0.0000000E+00
   1.610000      0.0000000E+00
   1.620000      0.0000000E+00
   1.630000      0.0000000E+00
   1.640000      0.0000000E+00
   1.650000      0.0000000E+00
   1.660000      0.0000000E+00
   1.670000      0.0000000E+00
   1.680000      0.0000000E+00
   1.690000      0.0000000E+00
   1.700000      0.0000000E+00
   1.710000      0.0000000E+00
   1.720000      0.0000000E+00
   1.730000      0.0000000E+00
   1.740000      0.0000000E+00
   1.750000      0.0000000E+00
   1.760000      0.0000000E+00
   1.770000      0.0000000E+00
   1.780000      0.0000000E+00
   1.790000      0.0000000E+00
   1.800000      0.0000000E+00
   1.810000      0.0000000E+00
   1.820000      0.0000000E+00
   1.830000      0.0000000E+00
   1.840000      0.0000000E+00
   1.850000      0.0000000E+00
   1.860000      0.0000000E+00
   1.870000      0.0000000E+00
   1.880000      0.0000000E+00
   1.890000      0.0000000E+00
   1.900000      0.0000000E+00
   1.910000      0.0000000E+00
   1.920000      0.0000000E+00
   1.930000      0.0000000E+00
   1.940000      0.0000000E+00
   1.950000      0.0000000E+00
   1.960000      0.0000000E+00
   1.970000      0.0000000E+00
   1.980000      0.0000000E+00
   1.990000      0.0000000E+00
   2.000000      0.0000000E+00
   2.010000      0.0000000E+00
   2.020000      0.0000000E+00
   2.030000      0.0000000E+00
   2.040000      0.0000000E+00
   2.050000      0.0000000E+00
   2.060000      0.0000000E+00
   2.070000      0.0000000E+00
   2.080000      0.0000000E+00
   2.090000      0.0000000E+00
   2.100000      0.0000000E+00
   2.110000      0.0000000E+00
   2.120000      0.0000000E+00
   2.130000      0.0000000E+00
   2.140000      0.0000000E+00
   2.150000      0.0000000E+00
   2.160000      0.0000000E+00
   2.170000      0.0000000E+00
   2.180000      0.0000000E+00
   2.190000      0.0000000E+00
   2.200000      0.0000000E+00
   2.210000      0.0000000E+00
   2.220000      0.0000000E+00
   2.230000      0.0000000E+00
   2.240000      0.0000000E+00
   2.250000      0.0000000E+00
   2.260000      0.0000000E+00
   2.270000      0.0000000E+00
   2.280000      0.0000000E+00
   2.290000      0.0000000E+00
   2.300000      0.0000000E+00
   2.310000      0.0000000E+00
   2.320000      0.0000000E+00
   2.330000      0.0000000E+00
   2.340000      0.0000000E+00
   2.350000      0.0000000E+00
   2.360000      0.0000000E+00
   2.370000      0.0000000E+00
   2.380000      0.0000000E+00
   2.390000      0.0000000E+00
   2.400000      0.0000000E+00
   2.410000      0.0000000E+00
   2.420000      0.0000000E+00
   2.430000      0.0000000E+00
   2.440000      0.0000000E+00
   2.450000      0.0000000E+00
   2.460000      0.0000000E+00
   2.470000      0.0000000E+00
   2.480000      0.0000000E+00
   2.490000      0.0000000E+00
   2.500000      0.0000000E+00
   2.510000      0.0000000E+00
   2.520000      0.0000000E+00
   2.530000      0.0000000E+00
   2.540000      0.0000000E+00
   2.550000      0.0000000E+00
   2.560000      0.0000000E+00
   2.570000      0.0000000E+00
   2.580000      0.0000000E+00
   2.590000      0.0000000E+00
   2.600000      0.0000000E+00
   2.610000      0.0000000E+00
   2.620000      0.0000000E+00
   2.630000      0.0000000E+00
   2.640000      0.0000000E+00
   2.650000      0.0000000E+00
   2.660000      0.0000000E+00
   2.670000      0.0000000E+00
   2.680000      0.0000000E+00
   2.690000      0.0000000E+00
   2.700000      0.0000000E+00
   2.710000      0.0000000E+00
   2.720000      0.0000000E+00
   2.730000      0.0000000E+00
   2.740000      0.0000000E+00
   2.750000      0.0000000E+00
   2.760000      0.0000000E+00
   2.770000      0.0000000E+00
   2.780000      0.0000000E+00
   2.790000      0.0000000E+00
   2.800000      0.0000000E+00
   2.810000      0.0000000E+00
   2.820000      0.0000000E+00
   2.830000      0.0000000E+00
   2.840000      0.0000000E+00
   2.850000      0.0000000E+00
   2.860000      0.0000000E+00
   2.870000      0.0000000E+00
   2.880000      0.0000000E+00
   2.890000      0.0000000E+00
   2.900000      0.0000000E+00
   2.910000      0.0000000E+00
   2.920000      0.0000000E+00
   2.930000      0.0000000E+00
   2.940000      0.0000000E+00
   2.950000      0.0000000E+00
   2.960000      0.0000000E+00
   2.970000      0.0000000E+00
   2.980000      0.0000000E+00
   2.990000      0.0000000E+00
   3.000000      0.0000000E+00
   3.010000      0.0000000E+00
   3.020000      0.0000000E+00
   3.030000      0.0000000E+00
   3.040000      0.0000000E+00
   3.050000      0.0000000E+00
   3.060000      0.0000000E+00
   3.070000      0.0000000E+00
   3.080000      0.0000000E+00
   3.090000      0.0000000E+00
   3.100000      0.0000000E+00
   3.110000      0.0000000E+00
   3.120000      0.0000000E+00
   3.130000      0.0000000E+00
   3.140000      0.0000000E+00
   3.150000      0.0000000E+00
   3.160000      0.0000000E+00
   3.170000      0.0000000E+00
   3.180000      0.0000000E+00
   3.190000      0.0000000E+00
   3.200000      0.0000000E+00
   3.210000      0.0000000E+00
   3.220000      0.0000000E+00
   3.230000      0.0000000E+00
   3.240000      0.0000000E+00
   3.250000      0.0000000E+00
   3.260000      0.0000000E+00
   3.270000      0.0000000E+00
   3.280000      0.0000000E+00
   3.290000      0.0000000E+00
   3.300000      0.0000000E+00
   3.310000      0.0000000E+00
   3.320000      0.0000000E+00
   3.330000      0.0000000E+00
   3.340000      0.0000000E+00
   3.350000      0.0000000E+00
   3.360000      0.0000000E+00
   3.370000      0.0000000E+00
   3.380000      0.0000000E+00
   3.390000      0.0000000E+00
   3.400000      0.0000000E+00
   3.410000      0.0000000E+00
   3.420000      0.0000000E+00
   3.430000      0.0000000E+00
   3.440000      0.0000000E+00
   3.450000      0.0000000E+00
   3.460000      0.0000000E+00
   3.470000      0.0000000E+00
   3.480000      0.0000000E+00
   3.490000      0.0000000E+00
   3.500000      0.0000000E+00
   3.510000      0.0000000E+00
   3.520000      0.0000000E+00
   3.530000      0.0000000E+00
   3.540000      0.0000000E+00
   3.550000      0.0000000E+00
   3.560000      0.0000000E+00
   3.570000      0.0000000E+00
   3.580000      0.0000000E+00
   3.590000      0.0000000E+00
   3.600000      0.0000000E+00
   3.610000      0.0000000E+00
   3.620000      0.0000000E+00
   3.630000      0.0000000E+00
   3.640000      0.0000000E+00
   3.650000      0.0000000E+00
   3.660000      0.0000000E+00
   3.670000      0.0000000E+00
   3.680000      0.0000000E+00
   3.690000      0.0000000E+00
   3.700000      0.0000000E+00
   3.710000      0.0000000E+00
   3.720000      0.0000000E+00
   3.730000      0.0000000E+00
   3.740000      0.0000000E+00
   3.750000      0.0000000E+00
   3.760000      0.0000000E+00
   3.770000      0.0000000E+00
   3.780000      0.0000000E+00
   3.790000      0.0000000E+00
   3.800000      0.0000000E+00
   3.810000      0.0000000E+00
   3.820000      0.0000000E+00
   3.830000      0.0000000E+00
   3.840000      0.0000000E+00
   3.850000      0.0000000E+00
   3.860000      0.0000000E+00
   3.870000      0.0000000E+00
   3.880000     -1.1780677E-38
   3.890000     -1.4970409E-38
   3.900000     -1.8197963E-38
   3.910000     -2.1479414E-38
   3.920000     -2.4806842E-38
   3.930000     -3.0183137E-38
   3.940000     -3.7779206E-38
   3.950000     -4.5761557E-38
   3.960000     -5.4133539E-38
   3.970000     -6.2891861E-38
   3.980000     -7.2021455E-38
   3.990000     -8.1497165E-38
   4.000000     -9.1286148E-38
   4.010000     -1.0067383E-37
   4.020000     -1.0577866E-37
   4.030000     -1.0478883E-37
   4.040000     -1.0054146E-37
   4.050000     -9.7252524E-38
   4.060000     -9.6159018E-38
   4.070000     -9.9142763E-38
   4.080000     -1.0591134E-37
   4.090000     -1.1275011E-37
   4.100000     -1.1961003E-37
   4.110000     -1.2853014E-37
   4.120000     -1.3962072E-37
   4.130000     -1.4614469E-37
   4.140000     -1.4731939E-37
   4.150000     -1.4666661E-37
   4.160000     -1.4430132E-37
   4.170000     -1.3998177E-37
   4.180000     -1.3696662E-37
   4.190000     -1.3597821E-37
   4.200000     -1.3362121E-37
   4.210000     -1.2598890E-37
   4.220000     -1.1277254E-37
   4.230000     -9.7504051E-38
   4.240000     -7.5425170E-38
   4.250000     -4.6583284E-38
   4.260000     -1.3420611E-38
   4.270000      2.3249636E-38
   4.280000      5.4406624E-38
   4.290000      8.0464918E-38
   4.300000      1.0772319E-37
   4.310000      1.3614572E-37
   4.320000      1.5377689E-37
   4.330000      1.5588206E-37
   4.340000      1.5332105E-37
   4.350000      1.5141172E-37
   4.360000      1.5088313E-37
   4.370000      1.5761657E-37
   4.380000      1.8185637E-37
   4.390000      2.1856543E-37
   4.400000      2.5894386E-37
   4.410000      3.0191047E-37
   4.420000      3.5073588E-37
   4.430000      4.0372660E-37
   4.440000      4.5532147E-37
   4.450000      5.0485676E-37
   4.460000      5.5226074E-37
   4.470000      5.9707036E-37
   4.480000      6.3851404E-37
   4.490000      6.6637697E-37
   4.500000      6.7969132E-37
   4.510000      6.9019232E-37
   4.520000      6.8350223E-37
   4.530000      6.5620969E-37
   4.540000      6.2190142E-37
   4.550000      5.8325549E-37
   4.560000      5.4354273E-37
   4.570000      5.1059531E-37
   4.580000      4.8311202E-37
   4.590000      4.7539752E-37
   4.600000      4.8207994E-37
   4.610000      4.8188793E-37
   4.620000      4.8103473E-37
   4.630000      4.7217794E-37
   4.640000      4.4826215E-37
   4.650000      4.0485535E-37
   4.660000      3.1949627E-37
   4.670000      1.9653034E-37
   4.680000      6.0335142E-38
   4.690000     -8.6910874E-38
   4.700000     -2.4161392E-37
   4.710000     -3.8526264E-37
   4.720000     -4.9197033E-37
   4.730000     -5.7076079E-37
   4.740000     -6.4788768E-37
   4.750000     -7.5016354E-37
   4.760000     -9.0759765E-37
   4.770000     -1.0930241E-36
   4.780000     -1.2752095E-36
   4.790000     -1.4679140E-36
   4.800000     -1.6922473E-36
   4.810000     -1.9448127E-36
   4.820000     -2.1975578E-36
   4.830000     -2.4557163E-36
   4.840000     -2.6991555E-36
   4.850000     -2.9210861E-36
   4.860000     -3.1786608E-36
   4.870000     -3.5292858E-36
   4.880000     -3.9513754E-36
   4.890000     -4.3849699E-36
   4.900000     -4.8105241E-36
   4.910000     -5.1821651E-36
   4.920000     -5.5464120E-36
   4.930000     -5.8796012E-36
   4.940000     -6.1529474E-36
   4.950000     -6.1965685E-36
   4.960000     -5.8262168E-36
   4.970000     -5.1018550E-36
   4.980000     -4.2320154E-36
   4.990000     -3.3245293E-36
   5.000000     -2.6012727E-36
   5.010000     -1.9198080E-36
   5.020000     -1.0321408E-36
   5.030000     -1.3643653E-37
   5.040000      8.7813299E-37
   5.050000      2.0825024E-36
   5.060000      3.1641246E-36
   5.070000      4.0166292E-36
   5.080000      4.9070956E-36
   5.090000      5.9032434E-36
   5.100000      6.8812560E-36
   5.110000      7.8031574E-36
   5.120000      8.6025703E-36
   5.130000      9.2321198E-36
   5.140000      9.8318745E-36
   5.150000      1.0461136E-35
   5.160000      1.1119892E-35
   5.170000      1.1779836E-35
   5.180000      1.2518409E-35
   5.190000      1.3444245E-35
   5.200000      1.4601772E-35
   5.210000      1.6062322E-35
   5.220000      1.7823714E-35
   5.230000      1.9614621E-35
   5.240000      2.1165021E-35
   5.250000      2.2582070E-35
   5.260000      2.3966885E-35
   5.270000      2.5146134E-35
   5.280000      2.6156391E-35
   5.290000      2.7249701E-35
   5.300000      2.8442515E-35
   5.310000      2.9844019E-35
   5.320000      3.1525803E-35
   5.330000      3.3213329E-35
   5.340000      3.4841228E-35
   5.350000      3.6414175E-35
   5.360000      3.7796867E-35
   5.370000      3.9073151E-35
   5.380000      4.0384249E-35
   5.390000      4.1461755E-35
   5.400000      4.2004279E-35
   5.410000      4.1981736E-35
   5.420000      4.1492933E-35
   5.430000      4.0649654E-35
   5.440000      3.9338065E-35
   5.450000      3.7243271E-35
   5.460000      3.4367382E-35
   5.470000      3.0776451E-35
   5.480000      2.6396529E-35
   5.490000      2.1275425E-35
   5.500000      1.5937538E-35
   5.510000      1.0428134E-35
   5.520000      3.5603341E-36
   5.530000     -5.0017884E-36
   5.540000     -1.6196355E-35
   5.550000     -3.1320530E-35
   5.560000     -4.8910179E-35
   5.570000     -6.8890495E-35
   5.580000     -9.1390679E-35
   5.590000     -1.1402132E-34
   5.600000     -1.3684848E-34
   5.610000     -1.5588838E-34
   5.620000     -1.7069908E-34
   5.630000     -1.8593718E-34
   5.640000     -2.0018917E-34
   5.650000     -2.0998914E-34
   5.660000     -2.1672454E-34
   5.670000     -2.2270980E-34
   5.680000     -2.2629566E-34
   5.690000     -2.2822526E-34
   5.700000     -2.2979918E-34
   5.710000     -2.3111945E-34
   5.720000     -2.3279173E-34
   5.730000     -2.3513854E-34
   5.740000     -2.3224398E-34
   5.750000     -2.2612475E-34
   5.760000     -2.2288833E-34
   5.770000     -2.2119934E-34
   5.780000     -2.2119748E-34
   5.790000     -2.2020187E-34
   5.800000     -2.1795123E-34
   5.810000     -2.1688670E-34
   5.820000     -2.1368017E-34
   5.830000     -2.0785683E-34
   5.840000     -2.0601808E-34
   5.850000     -2.0980168E-34
   5.860000     -2.1430176E-34
   5.870000     -2.2105054E-34
   5.880000     -2.3160099E-34
   5.890000     -2.4127038E-34
   5.900000     -2.5003796E-34
   5.910000     -2.5841326E-34
   5.920000     -2.6367275E-34
   5.930000     -2.6238131E-34
   5.940000     -2.5408804E-34
   5.950000     -2.3853946E-34
   5.960000     -2.1542135E-34
   5.970000     -1.8691979E-34
   5.980000     -1.5175684E-34
   5.990000     -1.0946279E-34
   6.000000     -6.0893024E-35
   6.010000     -6.4495014E-36
   6.020000      5.2342732E-35
   6.030000      1.1382664E-34
   6.040000      1.7760819E-34
   6.050000      2.4312672E-34
   6.060000      3.0950562E-34
   6.070000      3.7631307E-34
   6.080000      4.4296484E-34
   6.090000      5.0665469E-34
   6.100000      5.6875289E-34
   6.110000      6.3536521E-34
   6.120000      7.0712037E-34
   6.130000      7.7718929E-34
   6.140000      8.4329083E-34
   6.150000      9.0928143E-34
   6.160000      9.7540400E-34
   6.170000      1.0417126E-33
   6.180000      1.1074146E-33
   6.190000      1.1736754E-33
   6.200000      1.2411057E-33
   6.210000      1.3070280E-33
   6.220000      1.3733809E-33
   6.230000      1.4410756E-33
   6.240000      1.5075350E-33
   6.250000      1.5750032E-33
   6.260000      1.6435725E-33
   6.270000      1.7126892E-33
   6.280000      1.7830679E-33
   6.290000      1.8527427E-33
   6.300000      1.9220310E-33
   6.310000      1.9906606E-33
   6.320000      2.0563597E-33
   6.330000      2.1182406E-33
   6.340000      2.1759150E-33
   6.350000      2.2292947E-33
   6.360000      2.2759079E-33
   6.370000      2.3137793E-33
   6.380000      2.3429639E-33
   6.390000      2.3613995E-33
   6.400000      2.3720141E-33
   6.410000      2.3742760E-33
   6.420000      2.3633071E-33
   6.430000      2.3382425E-33
   6.440000      2.2999357E-33
   6.450000      2.2493202E-33
   6.460000      2.1877439E-33
   6.470000      2.1166201E-33
   6.480000      2.0332731E-33
   6.490000      1.9381534E-33
   6.500000      1.8339437E-33
   6.510000      1.7181591E-33
   6.520000      1.5889286E-33
   6.530000      1.4467113E-33
   6.540000      1.2906243E-33
   6.550000      1.1195707E-33
   6.560000      9.3271574E-34
   6.570000      7.2962452E-34
   6.580000      5.0830571E-34
   6.590000      2.6769184E-34
   6.600000      7.6069946E-36
   6.610000     -2.7342926E-34
   6.620000     -5.7657015E-34
   6.630000     -9.0247624E-34
   6.640000     -1.2514638E-33
   6.650000     -1.6237739E-33
   6.660000     -2.0208068E-33
   6.670000     -2.4429816E-33
   6.680000     -2.8905020E-33
   6.690000     -3.3645506E-33
   6.700000     -3.8636358E-33
   6.710000     -4.3865849E-33
   6.720000     -4.9335755E-33
   6.730000     -5.5037399E-33
   6.740000     -6.0956703E-33
   6.750000     -6.7079453E-33
   6.760000     -7.3389169E-33
   6.770000     -7.9868765E-33
   6.780000     -8.6502014E-33
   6.790000     -9.3274588E-33
   6.800000     -1.0015139E-32
   6.810000     -1.0710632E-32
   6.820000     -1.1414348E-32
   6.830000     -1.2122820E-32
   6.840000     -1.2832688E-32
   6.850000     -1.3543204E-32
   6.860000     -1.4252240E-32
   6.870000     -1.4957932E-32
   6.880000     -1.5658265E-32
   6.890000     -1.6350721E-32
   6.900000     -1.7032486E-32
   6.910000     -1.7700714E-32
   6.920000     -1.8352716E-32
   6.930000     -1.8984869E-32
   6.940000     -1.9593359E-32
   6.950000     -2.0174532E-32
   6.960000     -2.0723890E-32
   6.970000     -2.1237073E-32
   6.980000     -2.1709454E-32
   6.990000     -2.2135523E-32
   7.000000     -2.2509775E-32
   7.010000     -2.2827226E-32
   7.020000     -2.3081594E-32
   7.030000     -2.3266492E-32
   7.040000     -2.3376440E-32
   7.050000     -2.3404708E-32
   7.060000     -2.3344423E-32