  -2.600000      0.0000000E+00
  -2.590000      0.0000000E+00
  -2.580000      0.0000000E+00
  -2.570000      0.0000000E+00
  -2.560000      0.0000000E+00
  -2.550000      0.0000000E+00
  -2.540000      0.0000000E+00
  -2.530000      0.0000000E+00
  -2.520000      0.0000000E+00
  -2.510000      0.0000000E+00
  -2.500000      0.0000000E+00
  -2.490000      0.0000000E+00
  -2.480000      0.0000000E+00
  -2.470000      0.0000000E+00
  -2.460000      0.0000000E+00
  -2.450000      0.0000000E+00
  -2.440000      0.0000000E+00
  -2.430000      0.0000000E+00
  -2.420000      0.0000000E+00
  -2.410000      0.0000000E+00
  -2.400000      0.0000000E+00
  -2.390000      0.0000000E+00
  -2.380000      0.0000000E+00
  -2.370000      0.0000000E+00
  -2.360000      0.0000000E+00
  -2.350000      0.0000000E+00
  -2.340000      0.0000000E+00
  -2.330000      0.0000000E+00
  -2.320000      0.0000000E+00
  -2.310000      0.0000000E+00
  -2.300000      0.0000000E+00
  -2.290000      0.0000000E+00
  -2.280000      0.0000000E+00
  -2.270000      0.0000000E+00
  -2.260000      0.0000000E+00
  -2.250000      0.0000000E+00
  -2.240000      0.0000000E+00
  -2.230000      0.0000000E+00
  -2.220000      0.0000000E+00
  -2.210000      0.0000000E+00
  -2.200000      0.0000000E+00
  -2.190000      0.0000000E+00
  -2.180000      0.0000000E+00
  -2.170000      0.0000000E+00
  -2.160000      0.0000000E+00
  -2.150000      0.0000000E+00
  -2.140000      0.0000000E+00
  -2.130000      0.0000000E+00
  -2.120000      0.0000000E+00
  -2.110000      0.0000000E+00
  -2.100000      0.0000000E+00
  -2.090000      0.0000000E+00
  -2.080000      0.0000000E+00
  -2.070000      0.0000000E+00
  -2.060000      0.0000000E+00
  -2.050000      0.0000000E+00
  -2.040000      0.0000000E+00
  -2.030000      0.0000000E+00
  -2.020000      0.0000000E+00
  -2.010000      0.0000000E+00
  -2.000000      0.0000000E+00
  -1.990000      0.0000000E+00
  -1.980000      0.0000000E+00
  -1.970000      0.0000000E+00
  -1.960000      0.0000000E+00
  -1.950000      0.0000000E+00
  -1.940000      0.0000000E+00
  -1.930000      0.0000000E+00
  -1.920000      0.0000000E+00
  -1.910000      0.0000000E+00
  -1.900000      0.0000000E+00
  -1.890000      0.0000000E+00
  -1.880000      0.0000000E+00
  -1.870000      0.0000000E+00
  -1.860000      0.0000000E+00
  -1.850000      0.0000000E+00
  -1.840000      0.0000000E+00
  -1.830000      0.0000000E+00
  -1.820000      0.0000000E+00
  -1.810000      0.0000000E+00
  -1.800000      0.0000000E+00
  -1.790000      0.0000000E+00
  -1.780000      0.0000000E+00
  -1.770000      0.0000000E+00
  -1.760000      0.0000000E+00
  -1.750000      0.0000000E+00
  -1.740000      0.0000000E+00
  -1.730000      0.0000000E+00
  -1.720000      0.0000000E+00
  -1.710000      0.0000000E+00
  -1.700000      0.0000000E+00
  -1.690000      0.0000000E+00
  -1.680000      0.0000000E+00
  -1.670000      0.0000000E+00
  -1.660000      0.0000000E+00
  -1.650000      0.0000000E+00
  -1.640000      0.0000000E+00
  -1.630000      0.0000000E+00
  -1.620000      0.0000000E+00
  -1.610000      0.0000000E+00
  -1.600000      0.0000000E+00
  -1.590000      0.0000000E+00
  -1.580000      0.0000000E+00
  -1.570000      0.0000000E+00
  -1.560000      0.0000000E+00
  -1.550000      0.0000000E+00
  -1.540000      0.0000000E+00
  -1.530000      0.0000000E+00
  -1.520000      0.0000000E+00
  -1.510000      0.0000000E+00
  -1.500000      0.0000000E+00
  -1.490000      0.0000000E+00
  -1.480000      0.0000000E+00
  -1.470000      0.0000000E+00
  -1.460000      0.0000000E+00
  -1.450000      0.0000000E+00
  -1.440000      0.0000000E+00
  -1.430000      0.0000000E+00
  -1.420000      0.0000000E+00
  -1.410000      0.0000000E+00
  -1.400000      0.0000000E+00
  -1.390000      0.0000000E+00
  -1.380000      0.0000000E+00
  -1.370000      0.0000000E+00
  -1.360000      0.0000000E+00
  -1.350000      0.0000000E+00
  -1.340000      0.0000000E+00
  -1.330000      0.0000000E+00
  -1.320000      0.0000000E+00
  -1.310000      0.0000000E+00
  -1.300000      0.0000000E+00
  -1.290000      0.0000000E+00
  -1.280000      0.0000000E+00
  -1.270000      0.0000000E+00
  -1.260000      0.0000000E+00
  -1.250000      0.0000000E+00
  -1.240000      0.0000000E+00
  -1.230000      0.0000000E+00
  -1.220000      0.0000000E+00
  -1.210000      0.0000000E+00
  -1.200000      0.0000000E+00
  -1.190000      0.0000000E+00
  -1.180000      0.0000000E+00
  -1.170000      0.0000000E+00
  -1.160000      0.0000000E+00
  -1.150000      0.0000000E+00
  -1.140000      0.0000000E+00
  -1.130000      0.0000000E+00
  -1.120000      0.0000000E+00
  -1.110000      0.0000000E+00
  -1.100000      0.0000000E+00
  -1.090000      0.0000000E+00
  -1.080000      0.0000000E+00
  -1.070000      0.0000000E+00
  -1.060000      0.0000000E+00
  -1.050000      0.0000000E+00
  -1.040000      0.0000000E+00
  -1.030000      0.0000000E+00
  -1.020000      0.0000000E+00
  -1.010000      0.0000000E+00
  -1.000000      0.0000000E+00
 -0.9900000      0.0000000E+00
 -0.9800000      0.0000000E+00
 -0.9700000      0.0000000E+00
 -0.9600000      0.0000000E+00
 -0.9500000      0.0000000E+00
 -0.9400000      0.0000000E+00
 -0.9300000      0.0000000E+00
 -0.9200000      0.0000000E+00
 -0.9100000      0.0000000E+00
 -0.9000000      0.0000000E+00
 -0.8900000      0.0000000E+00
 -0.8800000      0.0000000E+00
 -0.8700000      0.0000000E+00
 -0.8600000      0.0000000E+00
 -0.8500000      0.0000000E+00
 -0.8400000      0.0000000E+00
 -0.8300000      0.0000000E+00
 -0.8200000      0.0000000E+00
 -0.8100000      0.0000000E+00
 -0.8000000      0.0000000E+00
 -0.7900000      0.0000000E+00
 -0.7800000      0.0000000E+00
 -0.7700000      0.0000000E+00
 -0.7600000      0.0000000E+00
 -0.7500000      0.0000000E+00
 -0.7400000      0.0000000E+00
 -0.7300000      0.0000000E+00
 -0.7200000      0.0000000E+00
 -0.7100000      0.0000000E+00
 -0.7000000      0.0000000E+00
 -0.6900000      0.0000000E+00
 -0.6800000      0.0000000E+00
 -0.6700000      0.0000000E+00
 -0.6600000      0.0000000E+00
 -0.6500000      0.0000000E+00
 -0.6400000      0.0000000E+00
 -0.6300000      0.0000000E+00
 -0.6200000      0.0000000E+00
 -0.6100000      0.0000000E+00
 -0.6000000      0.0000000E+00
 -0.5900000      0.0000000E+00
 -0.5800000      0.0000000E+00
 -0.5700000      0.0000000E+00
 -0.5600000      0.0000000E+00
 -0.5500000      0.0000000E+00
 -0.5400000      0.0000000E+00
 -0.5300000      0.0000000E+00
 -0.5200000      0.0000000E+00
 -0.5100000      0.0000000E+00
 -0.5000000      0.0000000E+00
 -0.4900000      0.0000000E+00
 -0.4800000      0.0000000E+00
 -0.4700000      0.0000000E+00
 -0.4600000      0.0000000E+00
 -0.4500000      0.0000000E+00
 -0.4400000      0.0000000E+00
 -0.4300000      0.0000000E+00
 -0.4200000      0.0000000E+00
 -0.4100000      0.0000000E+00
 -0.4000000      0.0000000E+00
 -0.3900000      0.0000000E+00
 -0.3800000      0.0000000E+00
 -0.3700000      0.0000000E+00
 -0.3600000      0.0000000E+00
 -0.3500000      0.0000000E+00
 -0.3400000      0.0000000E+00
 -0.3300000      0.0000000E+00
 -0.3200000      0.0000000E+00
 -0.3100000      0.0000000E+00
 -0.3000000      0.0000000E+00
 -0.2900000      0.0000000E+00
 -0.2800000      0.0000000E+00
 -0.2700000      0.0000000E+00
 -0.2600000      0.0000000E+00
 -0.2500000      0.0000000E+00
 -0.2400000      0.0000000E+00
 -0.2300000      0.0000000E+00
 -0.2200000      0.0000000E+00
 -0.2100000      0.0000000E+00
 -0.2000000      0.0000000E+00
 -0.1900000      0.0000000E+00
 -0.1800000      0.0000000E+00
 -0.1700000      0.0000000E+00
 -0.1600000      0.0000000E+00
 -0.1500000      0.0000000E+00
 -0.1400000      0.0000000E+00
 -0.1300000      0.0000000E+00
 -0.1200000      0.0000000E+00
 -0.1100000      0.0000000E+00
 -0.1000000      0.0000000E+00
 -9.0000004E-02  0.0000000E+00
 -7.9999998E-02  0.0000000E+00
 -7.0000000E-02  0.0000000E+00
 -5.9999999E-02  0.0000000E+00
 -5.0000001E-02  0.0000000E+00
 -3.9999999E-02  0.0000000E+00
 -2.9999999E-02  0.0000000E+00
 -2.0000000E-02  0.0000000E+00
 -9.9999998E-03  0.0000000E+00
 -3.4694470E-17  0.0000000E+00
  9.9999998E-03  0.0000000E+00
  2.0000000E-02  0.0000000E+00
  2.9999999E-02  0.0000000E+00
  3.9999999E-02  0.0000000E+00
  5.0000001E-02  0.0000000E+00
  5.9999999E-02  0.0000000E+00
  7.0000000E-02  0.0000000E+00
  7.9999998E-02  0.0000000E+00
  9.0000004E-02  0.0000000E+00
  0.1000000      0.0000000E+00
  0.1100000      0.0000000E+00
  0.1200000      0.0000000E+00
  0.1300000      0.0000000E+00
  0.1400000      0.0000000E+00
  0.1500000      0.0000000E+00
  0.1600000      0.0000000E+00
  0.1700000      0.0000000E+00
  0.1800000      0.0000000E+00
  0.1900000      0.0000000E+00
  0.2000000      0.0000000E+00
  0.2100000      0.0000000E+00
  0.2200000      0.0000000E+00
  0.2300000      0.0000000E+00
  0.2400000      0.0000000E+00
  0.2500000      0.0000000E+00
  0.2600000      0.0000000E+00
  0.2700000      0.0000000E+00
  0.2800000      0.0000000E+00
  0.2900000      0.0000000E+00
  0.3000000      0.0000000E+00
  0.3100000      0.0000000E+00
  0.3200000      0.0000000E+00
  0.3300000      0.0000000E+00
  0.3400000      0.0000000E+00
  0.3500000      0.0000000E+00
  0.3600000      0.0000000E+00
  0.3700000      0.0000000E+00
  0.3800000      0.0000000E+00
  0.3900000      0.0000000E+00
  0.4000000      0.0000000E+00
  0.4100000      0.0000000E+00
  0.4200000      0.0000000E+00
  0.4300000      0.0000000E+00
  0.4400000      0.0000000E+00
  0.4500000      0.0000000E+00
  0.4600000      0.0000000E+00
  0.4700000      0.0000000E+00
  0.4800000      0.0000000E+00
  0.4900000      0.0000000E+00
  0.5000000      0.0000000E+00
  0.5100000      0.0000000E+00
  0.5200000      0.0000000E+00
  0.5300000      0.0000000E+00
  0.5400000      0.0000000E+00
  0.5500000      0.0000000E+00
  0.5600000      0.0000000E+00
  0.5700000      0.0000000E+00
  0.5800000      0.0000000E+00
  0.5900000      0.0000000E+00
  0.6000000      0.0000000E+00
  0.6100000      0.0000000E+00
  0.6200000      0.0000000E+00
  0.6300000      0.0000000E+00
  0.6400000      0.0000000E+00
  0.6500000      0.0000000E+00
  0.6600000      0.0000000E+00
  0.6700000      0.0000000E+00
  0.6800000      0.0000000E+00
  0.6900000      0.0000000E+00
  0.7000000      0.0000000E+00
  0.7100000      0.0000000E+00
  0.7200000      0.0000000E+00
  0.7300000      0.0000000E+00
  0.7400000      0.0000000E+00
  0.7500000      0.0000000E+00
  0.7600000      0.0000000E+00
  0.7700000      0.0000000E+00
  0.7800000      0.0000000E+00
  0.7900000      0.0000000E+00
  0.8000000      0.0000000E+00
  0.8100000      0.0000000E+00
  0.8200000      0.0000000E+00
  0.8300000      0.0000000E+00
  0.8400000      0.0000000E+00
  0.8500000      0.0000000E+00
  0.8600000      0.0000000E+00
  0.8700000      0.0000000E+00
  0.8800000      0.0000000E+00
  0.8900000      0.0000000E+00
  0.9000000      0.0000000E+00
  0.9100000      0.0000000E+00
  0.9200000      0.0000000E+00
  0.9300000      0.0000000E+00
  0.9400000      0.0000000E+00
  0.9500000      0.0000000E+00
  0.9600000      0.0000000E+00
  0.9700000      0.0000000E+00
  0.9800000      0.0000000E+00
  0.9900000      0.0000000E+00
   1.000000      0.0000000E+00
   1.010000      0.0000000E+00
   1.020000      0.0000000E+00
   1.030000      0.0000000E+00
   1.040000      0.0000000E+00
   1.050000      0.0000000E+00
   1.060000      0.0000000E+00
   1.070000      0.0000000E+00
   1.080000      0.0000000E+00
   1.090000      0.0000000E+00
   1.100000      0.0000000E+00
   1.110000      0.0000000E+00
   1.120000      0.0000000E+00
   1.130000      0.0000000E+00
   1.140000      0.0000000E+00
   1.150000      0.0000000E+00
   1.160000      0.0000000E+00
   1.170000      0.0000000E+00
   1.180000      0.0000000E+00
   1.190000      0.0000000E+00
   1.200000      0.0000000E+00
   1.210000      0.0000000E+00
   1.220000      0.0000000E+00
   1.230000      0.0000000E+00
   1.240000      0.0000000E+00
   1.250000      0.0000000E+00
   1.260000      0.0000000E+00
   1.270000      0.0000000E+00
   1.280000      0.0000000E+00
   1.290000      0.0000000E+00
   1.300000      0.0000000E+00
   1.310000      0.0000000E+00
   1.320000      0.0000000E+00
   1.330000      0.0000000E+00
   1.340000      0.0000000E+00
   1.350000      0.0000000E+00
   1.360000      0.0000000E+00
   1.370000      0.0000000E+00
   1.380000      0.0000000E+00
   1.390000      0.0000000E+00
   1.400000      0.0000000E+00
   1.410000      0.0000000E+00
   1.420000      0.0000000E+00
   1.430000      0.0000000E+00
   1.440000      0.0000000E+00
   1.450000      0.0000000E+00
   1.460000      0.0000000E+00
   1.470000      0.0000000E+00
   1.480000      0.0000000E+00
   1.490000      0.0000000E+00
   1.500000      0.0000000E+00
   1.510000      0.0000000E+00
   1.520000      0.0000000E+00
   1.530000      0.0000000E+00
   1.540000      0.0000000E+00
   1.550000      0.0000000E+00
   1.560000      0.0000000E+00
   1.570000      0.0000000E+00
   1.580000      0.0000000E+00
   1.590000      0.0000000E+00
   1.600000      0.0000000E+00
   1.610000      0.0000000E+00
   1.620000      0.0000000E+00
   1.630000      0.0000000E+00
   1.640000      0.0000000E+00
   1.650000      0.0000000E+00
   1.660000      0.0000000E+00
   1.670000      0.0000000E+00
   1.680000      0.0000000E+00
   1.690000      0.0000000E+00
   1.700000      0.0000000E+00
   1.710000      0.0000000E+00
   1.720000      0.0000000E+00
   1.730000      0.0000000E+00
   1.740000      0.0000000E+00
   1.750000      0.0000000E+00
   1.760000      0.0000000E+00
   1.770000      0.0000000E+00
   1.780000      0.0000000E+00
   1.790000      0.0000000E+00
   1.800000      0.0000000E+00
   1.810000      0.0000000E+00
   1.820000      0.0000000E+00
   1.830000      0.0000000E+00
   1.840000      0.0000000E+00
   1.850000      0.0000000E+00
   1.860000      0.0000000E+00
   1.870000      0.0000000E+00
   1.880000      0.0000000E+00
   1.890000      0.0000000E+00
   1.900000      0.0000000E+00
   1.910000      0.0000000E+00
   1.920000      0.0000000E+00
   1.930000      0.0000000E+00
   1.940000      0.0000000E+00
   1.950000      0.0000000E+00
   1.960000      0.0000000E+00
   1.970000      0.0000000E+00
   1.980000      0.0000000E+00
   1.990000      0.0000000E+00
   2.000000      0.0000000E+00
   2.010000      0.0000000E+00
   2.020000      0.0000000E+00
   2.030000      0.0000000E+00
   2.040000      0.0000000E+00
   2.050000      0.0000000E+00
   2.060000      0.0000000E+00
   2.070000      0.0000000E+00
   2.080000      0.0000000E+00
   2.090000      0.0000000E+00
   2.100000      0.0000000E+00
   2.110000      0.0000000E+00
   2.120000      0.0000000E+00
   2.130000      0.0000000E+00
   2.140000      0.0000000E+00
   2.150000      0.0000000E+00
   2.160000      0.0000000E+00
   2.170000      0.0000000E+00
   2.180000      0.0000000E+00
   2.190000      0.0000000E+00
   2.200000      0.0000000E+00
   2.210000      0.0000000E+00
   2.220000      0.0000000E+00
   2.230000      0.0000000E+00
   2.240000      0.0000000E+00
   2.250000      0.0000000E+00
   2.260000      0.0000000E+00
   2.270000      0.0000000E+00
   2.280000      0.0000000E+00
   2.290000      0.0000000E+00
   2.300000      0.0000000E+00
   2.310000      0.0000000E+00
   2.320000      0.0000000E+00
   2.330000      0.0000000E+00
   2.340000      0.0000000E+00
   2.350000      0.0000000E+00
   2.360000      0.0000000E+00
   2.370000      0.0000000E+00
   2.380000      0.0000000E+00
   2.390000      0.0000000E+00
   2.400000      0.0000000E+00
   2.410000      0.0000000E+00
   2.420000      0.0000000E+00
   2.430000      0.0000000E+00
   2.440000      0.0000000E+00
   2.450000      0.0000000E+00
   2.460000      0.0000000E+00
   2.470000      0.0000000E+00
   2.480000      0.0000000E+00
   2.490000      0.0000000E+00
   2.500000      0.0000000E+00
   2.510000      0.0000000E+00
   2.520000      0.0000000E+00
   2.530000      0.0000000E+00
   2.540000      0.0000000E+00
   2.550000      0.0000000E+00
   2.560000      0.0000000E+00
   2.570000      0.0000000E+00
   2.580000      0.0000000E+00
   2.590000      0.0000000E+00
   2.600000      0.0000000E+00
   2.610000      0.0000000E+00
   2.620000      0.0000000E+00
   2.630000      0.0000000E+00
   2.640000      0.0000000E+00
   2.650000      0.0000000E+00
   2.660000      0.0000000E+00
   2.670000      0.0000000E+00
   2.680000      0.0000000E+00
   2.690000      0.0000000E+00
   2.700000      0.0000000E+00
   2.710000      0.0000000E+00
   2.720000      0.0000000E+00
   2.730000      0.0000000E+00
   2.740000      0.0000000E+00
   2.750000      0.0000000E+00
   2.760000      0.0000000E+00
   2.770000      0.0000000E+00
   2.780000      0.0000000E+00
   2.790000      0.0000000E+00
   2.800000      0.0000000E+00
   2.810000      0.0000000E+00
   2.820000      0.0000000E+00
   2.830000      0.0000000E+00
   2.840000      0.0000000E+00
   2.850000      0.0000000E+00
   2.860000      0.0000000E+00
   2.870000      0.0000000E+00
   2.880000      0.0000000E+00
   2.890000      0.0000000E+00
   2.900000      0.0000000E+00
   2.910000      0.0000000E+00
   2.920000      0.0000000E+00
   2.930000      0.0000000E+00
   2.940000      0.0000000E+00
   2.950000      0.0000000E+00
   2.960000      0.0000000E+00
   2.970000      0.0000000E+00
   2.980000      0.0000000E+00
   2.990000      0.0000000E+00
   3.000000      0.0000000E+00
   3.010000      0.0000000E+00
   3.020000      0.0000000E+00
   3.030000      0.0000000E+00
   3.040000      0.0000000E+00
   3.050000      0.0000000E+00
   3.060000      0.0000000E+00
   3.070000      0.0000000E+00
   3.080000      0.0000000E+00
   3.090000      0.0000000E+00
   3.100000      0.0000000E+00
   3.110000      0.0000000E+00
   3.120000      0.0000000E+00
   3.130000      0.0000000E+00
   3.140000      0.0000000E+00
   3.150000      0.0000000E+00
   3.160000      0.0000000E+00
   3.170000      0.0000000E+00
   3.180000      0.0000000E+00
   3.190000      0.0000000E+00
   3.200000      0.0000000E+00
   3.210000      0.0000000E+00
   3.220000      0.0000000E+00
   3.230000      0.0000000E+00
   3.240000      0.0000000E+00
   3.250000      0.0000000E+00
   3.260000      0.0000000E+00
   3.270000      0.0000000E+00
   3.280000      0.0000000E+00
   3.290000      0.0000000E+00
   3.300000      0.0000000E+00
   3.310000      0.0000000E+00
   3.320000      0.0000000E+00
   3.330000      0.0000000E+00
   3.340000      0.0000000E+00
   3.350000      0.0000000E+00
   3.360000      0.0000000E+00
   3.370000      0.0000000E+00
   3.380000      0.0000000E+00
   3.390000      0.0000000E+00
   3.400000      0.0000000E+00
   3.410000      0.0000000E+00
   3.420000      0.0000000E+00
   3.430000      0.0000000E+00
   3.440000      0.0000000E+00
   3.450000      0.0000000E+00
   3.460000      0.0000000E+00
   3.470000      0.0000000E+00
   3.480000      0.0000000E+00
   3.490000      0.0000000E+00
   3.500000      0.0000000E+00
   3.510000      0.0000000E+00
   3.520000      0.0000000E+00
   3.530000      0.0000000E+00
   3.540000     -1.3653475E-38
   3.550000     -1.7802632E-38
   3.560000     -2.1717084E-38
   3.570000     -2.5237226E-38
   3.580000     -2.8236332E-38
   3.590000     -2.9718931E-38
   3.600000     -2.9995332E-38
   3.610000     -3.0286863E-38
   3.620000     -3.0592627E-38
   3.630000     -3.0906826E-38
   3.640000     -3.1207623E-38
   3.650000     -3.1499197E-38
   3.660000     -3.3089402E-38
   3.670000     -3.6336709E-38
   3.680000     -4.0238633E-38
   3.690000     -4.4587613E-38
   3.700000     -4.9023194E-38
   3.710000     -5.3203676E-38
   3.720000     -5.6838628E-38
   3.730000     -5.9698538E-38
   3.740000     -6.0902219E-38
   3.750000     -6.0781399E-38
   3.760000     -6.0564002E-38
   3.770000     -6.0327569E-38
   3.780000     -6.0083693E-38
   3.790000     -5.9838510E-38
   3.800000     -5.8155220E-38
   3.810000     -5.4774072E-38
   3.820000     -5.0781918E-38
   3.830000     -4.6323985E-38
   3.840000     -4.1587828E-38
   3.850000     -3.6680243E-38
   3.860000     -2.8057434E-38
   3.870000     -1.5447599E-38
   3.880000      0.0000000E+00
   3.890000      0.0000000E+00
   3.900000      2.5228425E-38
   3.910000      3.9411746E-38
   3.920000      5.2786913E-38
   3.930000      6.4230796E-38
   3.940000      7.4926549E-38
   3.950000      8.6838522E-38
   3.960000      1.0001131E-37
   3.970000      1.1378347E-37
   3.980000      1.3069457E-37
   3.990000      1.5108599E-37
   4.000000      1.7238095E-37
   4.010000      1.9455449E-37
   4.020000      2.1802496E-37
   4.030000      2.4253808E-37
   4.040000      2.7103462E-37
   4.050000      3.0333226E-37
   4.060000      3.3473807E-37
   4.070000      3.6411046E-37
   4.080000      3.9208995E-37
   4.090000      4.1841091E-37
   4.100000      4.3974719E-37
   4.110000      4.5644645E-37
   4.120000      4.6899397E-37
   4.130000      4.7837155E-37
   4.140000      4.8712126E-37
   4.150000      4.9168608E-37
   4.160000      4.9219153E-37
   4.170000      4.8684091E-37
   4.180000      4.7451468E-37
   4.190000      4.6014247E-37
   4.200000      4.4161977E-37
   4.210000      4.1767959E-37
   4.220000      3.9637052E-37
   4.230000      3.7747564E-37
   4.240000      3.5749908E-37
   4.250000      3.3687502E-37
   4.260000      3.1933668E-37
   4.270000      3.0652895E-37
   4.280000      2.9155290E-37
   4.290000      2.7313500E-37
   4.300000      2.5248049E-37
   4.310000      2.2994868E-37
   4.320000      1.6522646E-37
   4.330000      5.5047886E-38
   4.340000     -6.5593980E-38
   4.350000     -1.9971440E-37
   4.360000     -3.4553942E-37
   4.370000     -4.9943905E-37
   4.380000     -6.5818845E-37
   4.390000     -8.2013026E-37
   4.400000     -9.8330104E-37
   4.410000     -1.1471655E-36
   4.420000     -1.3098008E-36
   4.430000     -1.5514586E-36
   4.440000     -1.8826374E-36
   4.450000     -2.2191938E-36
   4.460000     -2.5529335E-36
   4.470000     -2.8122486E-36
   4.480000     -3.0013989E-36
   4.490000     -3.1979739E-36
   4.500000     -3.3611601E-36
   4.510000     -3.4876044E-36
   4.520000     -3.6062106E-36
   4.530000     -3.7181455E-36
   4.540000     -3.8305489E-36
   4.550000     -3.9393148E-36
   4.560000     -4.0440331E-36
   4.570000     -4.2776924E-36
   4.580000     -4.4969726E-36
   4.590000     -4.5139553E-36
   4.600000     -4.4789707E-36
   4.610000     -4.5451414E-36
   4.620000     -4.7242744E-36
   4.630000     -4.9369626E-36
   4.640000     -5.1770055E-36
   4.650000     -5.4022446E-36
   4.660000     -5.6285172E-36
   4.670000     -6.0198727E-36
   4.680000     -6.5659869E-36
   4.690000     -6.7976771E-36
   4.700000     -6.6945810E-36
   4.710000     -6.5759108E-36
   4.720000     -6.5200160E-36
   4.730000     -6.5303152E-36
   4.740000     -6.6425217E-36
   4.750000     -6.7904099E-36
   4.760000     -6.8110391E-36
   4.770000     -6.6953651E-36
   4.780000     -6.4254556E-36
   4.790000     -6.0448147E-36
   4.800000     -5.6147620E-36
   4.810000     -5.1576558E-36
   4.820000     -4.6191486E-36
   4.830000     -4.0364997E-36
   4.840000     -3.1750265E-36
   4.850000     -1.9556313E-36
   4.860000     -6.6969731E-37
   4.870000      7.6760359E-37
   4.880000      2.4119147E-36
   4.890000      4.1851771E-36
   4.900000      6.0972764E-36
   4.910000      8.2421899E-36
   4.920000      1.0527749E-35
   4.930000      1.2796116E-35
   4.940000      1.4902502E-35
   4.950000      1.6822455E-35
   4.960000      1.8736605E-35
   4.970000      2.0647481E-35
   4.980000      2.2620066E-35
   4.990000      2.4705356E-35
   5.000000      2.6823383E-35
   5.010000      2.9013356E-35
   5.020000      3.1139703E-35
   5.030000      3.2897019E-35
   5.040000      3.4580234E-35
   5.050000      3.6618150E-35
   5.060000      3.8699197E-35
   5.070000      4.0542760E-35
   5.080000      4.2108894E-35
   5.090000      4.3786711E-35
   5.100000      4.5906028E-35
   5.110000      4.7974484E-35
   5.120000      4.9977118E-35
   5.130000      5.1623654E-35
   5.140000      5.2789201E-35
   5.150000      5.3943579E-35
   5.160000      5.5029999E-35
   5.170000      5.5898797E-35
   5.180000      5.6608766E-35
   5.190000      5.7124514E-35
   5.200000      5.7286196E-35
   5.210000      5.7126339E-35
   5.220000      5.6682998E-35
   5.230000      5.5980732E-35
   5.240000      5.7556181E-35
   5.250000      6.1382088E-35
   5.260000      6.4956486E-35
   5.270000      6.8272821E-35
   5.280000      6.8239077E-35
   5.290000      6.4486139E-35
   5.300000      5.9824816E-35
   5.310000      5.4576716E-35
   5.320000      4.8769642E-35
   5.330000      4.2167783E-35
   5.340000      3.4760596E-35
   5.350000      2.6943117E-35
   5.360000      1.8705219E-35
   5.370000      9.3939749E-36
   5.380000     -9.7357078E-37
   5.390000     -1.1846192E-35
   5.400000     -2.6000118E-35
   5.410000     -4.6123353E-35
   5.420000     -6.9129084E-35
   5.430000     -9.1695292E-35
   5.440000     -1.1345781E-34
   5.450000     -1.3446443E-34
   5.460000     -1.5453207E-34
   5.470000     -1.7182869E-34
   5.480000     -1.8715989E-34
   5.490000     -2.0308970E-34
   5.500000     -2.1951501E-34
   5.510000     -2.3630169E-34
   5.520000     -2.4856659E-34
   5.530000     -2.5944650E-34
   5.540000     -2.6875456E-34
   5.550000     -2.7240615E-34
   5.560000     -2.8001726E-34
   5.570000     -2.9263296E-34
   5.580000     -3.0599597E-34
   5.590000     -3.2228366E-34
   5.600000     -3.4089410E-34
   5.610000     -3.5880544E-34
   5.620000     -3.7558496E-34
   5.630000     -3.9129663E-34
   5.640000     -4.0633433E-34
   5.650000     -4.2082780E-34
   5.660000     -4.3481238E-34
   5.670000     -4.4843502E-34
   5.680000     -4.6111728E-34
   5.690000     -4.7361154E-34
   5.700000     -4.8865713E-34
   5.710000     -5.0549811E-34
   5.720000     -5.2132141E-34
   5.730000     -5.3577683E-34
   5.740000     -5.5059063E-34
   5.750000     -5.6544254E-34
   5.760000     -5.7834630E-34
   5.770000     -5.8888575E-34
   5.780000     -5.9477631E-34
   5.790000     -5.9550815E-34
   5.800000     -5.9299961E-34
   5.810000     -5.8737758E-34
   5.820000     -5.7835961E-34
   5.830000     -5.6586567E-34
   5.840000     -5.4941738E-34
   5.850000     -5.2464811E-34
   5.860000     -4.8837203E-34
   5.870000     -4.4381281E-34
   5.880000     -3.9337023E-34
   5.890000     -3.3673799E-34
   5.900000     -2.7419388E-34
   5.910000     -2.0599969E-34
   5.920000     -1.3271650E-34
   5.930000     -5.7456396E-35
   5.940000      2.0048601E-35
   5.950000      1.0194210E-34
   5.960000      1.8826953E-34
   5.970000      2.7903113E-34
   5.980000      3.7427800E-34
   5.990000      4.7029577E-34
   6.000000      5.6487784E-34
   6.010000      6.6127283E-34
   6.020000      7.6113893E-34
   6.030000      8.6511590E-34
   6.040000      9.7430555E-34
   6.050000      1.0874000E-33
   6.060000      1.2040517E-33
   6.070000      1.3273603E-33
   6.080000      1.4533324E-33
   6.090000      1.5831519E-33
   6.100000      1.7192611E-33
   6.110000      1.8614295E-33
   6.120000      2.0142897E-33
   6.130000      2.1743922E-33
   6.140000      2.3402529E-33
   6.150000      2.5131764E-33
   6.160000      2.6895906E-33
   6.170000      2.8681930E-33
   6.180000      3.0500543E-33
   6.190000      3.2344645E-33
   6.200000      3.4192225E-33
   6.210000      3.6033409E-33
   6.220000      3.7857817E-33
   6.230000      3.9647044E-33
   6.240000      4.1385850E-33
   6.250000      4.3060129E-33
   6.260000      4.4661747E-33
   6.270000      4.6179883E-33
   6.280000      4.7603958E-33
   6.290000      4.8913808E-33
   6.300000      5.0100679E-33
   6.310000      5.1156111E-33
   6.320000      5.2060430E-33
   6.330000      5.2804628E-33
   6.340000      5.3379889E-33
   6.350000      5.3783565E-33
   6.360000      5.4012430E-33
   6.370000      5.4055574E-33
   6.380000      5.3901188E-33
   6.390000      5.3541711E-33
   6.400000      5.2969579E-33
   6.410000      5.2172895E-33
   6.420000      5.1142111E-33
   6.430000      4.9869198E-33
   6.440000      4.8342341E-33
   6.450000      4.6551042E-33
   6.460000      4.4483167E-33
   6.470000      4.2121533E-33
   6.480000      3.9450373E-33
   6.490000      3.6449791E-33
   6.500000      3.3102560E-33
   6.510000      2.9393194E-33
   6.520000      2.5295195E-33
   6.530000      2.0788050E-33
   6.540000      1.5858381E-33
   6.550000      1.0491967E-33
   6.560000      4.6741586E-34
   6.570000     -1.6125219E-34
   6.580000     -8.3812453E-34
   6.590000     -1.5639815E-33
   6.600000     -2.3395875E-33
   6.610000     -3.1656276E-33
   6.620000     -4.0417452E-33
   6.630000     -4.9668640E-33
   6.640000     -5.9411226E-33
   6.650000     -6.9640018E-33
   6.660000     -8.0342585E-33
   6.670000     -9.1505866E-33
   6.680000     -1.0311601E-32
   6.690000     -1.1515645E-32
   6.700000     -1.2759706E-32
   6.710000     -1.4041741E-32
   6.720000     -1.5359834E-32
   6.730000     -1.6711058E-32
   6.740000     -1.8094260E-32
   6.750000     -1.9506049E-32
   6.760000     -2.0940781E-32
   6.770000     -2.2394484E-32
   6.780000     -2.3863076E-32
   6.790000     -2.5342289E-32
   6.800000     -2.6829671E-32
   6.810000     -2.8322255E-32
   6.820000     -2.9814962E-32
   6.830000     -3.1303197E-32
   6.840000     -3.2782457E-32
   6.850000     -3.4247505E-32
   6.860000     -3.5692572E-32
   6.870000     -3.7111826E-32
   6.880000     -3.8499027E-32
   6.890000     -3.9847260E-32
   6.900000     -4.1149070E-32
   6.910000     -4.2396522E-32
   6.920000     -4.3581095E-32
   6.930000     -4.4693770E-32
   6.940000     -4.5725405E-32
   6.950000     -4.6665436E-32
   6.960000     -4.7503422E-32
   6.970000     -4.8228250E-32
   6.980000     -4.8828081E-32
   6.990000     -4.9291869E-32
   7.000000     -4.9607719E-32
   7.010000     -4.9763589E-32
   7.020000     -4.9747332E-32
   7.030000     -4.9546693E-32
   7.040000     -4.9149441E-32
   7.050000     -4.8543353E-32
   7.060000     -4.7716278E-32