  -2.600000      0.0000000E+00
  -2.590000      0.0000000E+00
  -2.580000      0.0000000E+00
  -2.570000      0.0000000E+00
  -2.560000      0.0000000E+00
  -2.550000      0.0000000E+00
  -2.540000      0.0000000E+00
  -2.530000      0.0000000E+00
  -2.520000      0.0000000E+00
  -2.510000      0.0000000E+00
  -2.500000      0.0000000E+00
  -2.490000      0.0000000E+00
  -2.480000      0.0000000E+00
  -2.470000      0.0000000E+00
  -2.460000      0.0000000E+00
  -2.450000      0.0000000E+00
  -2.440000      0.0000000E+00
  -2.430000      0.0000000E+00
  -2.420000      0.0000000E+00
  -2.410000      0.0000000E+00
  -2.400000      0.0000000E+00
  -2.390000      0.0000000E+00
  -2.380000      0.0000000E+00
  -2.370000      0.0000000E+00
  -2.360000      0.0000000E+00
  -2.350000      0.0000000E+00
  -2.340000      0.0000000E+00
  -2.330000      0.0000000E+00
  -2.320000      0.0000000E+00
  -2.310000      0.0000000E+00
  -2.300000      0.0000000E+00
  -2.290000      0.0000000E+00
  -2.280000      0.0000000E+00
  -2.270000      0.0000000E+00
  -2.260000      0.0000000E+00
  -2.250000      0.0000000E+00
  -2.240000      0.0000000E+00
  -2.230000      0.0000000E+00
  -2.220000      0.0000000E+00
  -2.210000      0.0000000E+00
  -2.200000      0.0000000E+00
  -2.190000      0.0000000E+00
  -2.180000      0.0000000E+00
  -2.170000      0.0000000E+00
  -2.160000      0.0000000E+00
  -2.150000      0.0000000E+00
  -2.140000      0.0000000E+00
  -2.130000      0.0000000E+00
  -2.120000      0.0000000E+00
  -2.110000      0.0000000E+00
  -2.100000      0.0000000E+00
  -2.090000      0.0000000E+00
  -2.080000      0.0000000E+00
  -2.070000      0.0000000E+00
  -2.060000      0.0000000E+00
  -2.050000      0.0000000E+00
  -2.040000      0.0000000E+00
  -2.030000      0.0000000E+00
  -2.020000      0.0000000E+00
  -2.010000      0.0000000E+00
  -2.000000      0.0000000E+00
  -1.990000      0.0000000E+00
  -1.980000      0.0000000E+00
  -1.970000      0.0000000E+00
  -1.960000      0.0000000E+00
  -1.950000      0.0000000E+00
  -1.940000      0.0000000E+00
  -1.930000      0.0000000E+00
  -1.920000      0.0000000E+00
  -1.910000      0.0000000E+00
  -1.900000      0.0000000E+00
  -1.890000      0.0000000E+00
  -1.880000      0.0000000E+00
  -1.870000      0.0000000E+00
  -1.860000      0.0000000E+00
  -1.850000      0.0000000E+00
  -1.840000      0.0000000E+00
  -1.830000      0.0000000E+00
  -1.820000      0.0000000E+00
  -1.810000      0.0000000E+00
  -1.800000      0.0000000E+00
  -1.790000      0.0000000E+00
  -1.780000      0.0000000E+00
  -1.770000      0.0000000E+00
  -1.760000      0.0000000E+00
  -1.750000      0.0000000E+00
  -1.740000      0.0000000E+00
  -1.730000      0.0000000E+00
  -1.720000      0.0000000E+00
  -1.710000      0.0000000E+00
  -1.700000      0.0000000E+00
  -1.690000      0.0000000E+00
  -1.680000      0.0000000E+00
  -1.670000      0.0000000E+00
  -1.660000      0.0000000E+00
  -1.650000      0.0000000E+00
  -1.640000      0.0000000E+00
  -1.630000      0.0000000E+00
  -1.620000      0.0000000E+00
  -1.610000      0.0000000E+00
  -1.600000      0.0000000E+00
  -1.590000      0.0000000E+00
  -1.580000      0.0000000E+00
  -1.570000      0.0000000E+00
  -1.560000      0.0000000E+00
  -1.550000      0.0000000E+00
  -1.540000      0.0000000E+00
  -1.530000      0.0000000E+00
  -1.520000      0.0000000E+00
  -1.510000      0.0000000E+00
  -1.500000      0.0000000E+00
  -1.490000      0.0000000E+00
  -1.480000      0.0000000E+00
  -1.470000      0.0000000E+00
  -1.460000      0.0000000E+00
  -1.450000      0.0000000E+00
  -1.440000      0.0000000E+00
  -1.430000      0.0000000E+00
  -1.420000      0.0000000E+00
  -1.410000      0.0000000E+00
  -1.400000      0.0000000E+00
  -1.390000      0.0000000E+00
  -1.380000      0.0000000E+00
  -1.370000      0.0000000E+00
  -1.360000      0.0000000E+00
  -1.350000      0.0000000E+00
  -1.340000      0.0000000E+00
  -1.330000      0.0000000E+00
  -1.320000      0.0000000E+00
  -1.310000      0.0000000E+00
  -1.300000      0.0000000E+00
  -1.290000      0.0000000E+00
  -1.280000      0.0000000E+00
  -1.270000      0.0000000E+00
  -1.260000      0.0000000E+00
  -1.250000      0.0000000E+00
  -1.240000      0.0000000E+00
  -1.230000      0.0000000E+00
  -1.220000      0.0000000E+00
  -1.210000      0.0000000E+00
  -1.200000      0.0000000E+00
  -1.190000      0.0000000E+00
  -1.180000      0.0000000E+00
  -1.170000      0.0000000E+00
  -1.160000      0.0000000E+00
  -1.150000      0.0000000E+00
  -1.140000      0.0000000E+00
  -1.130000      0.0000000E+00
  -1.120000      0.0000000E+00
  -1.110000      0.0000000E+00
  -1.100000      0.0000000E+00
  -1.090000      0.0000000E+00
  -1.080000      0.0000000E+00
  -1.070000      0.0000000E+00
  -1.060000      0.0000000E+00
  -1.050000      0.0000000E+00
  -1.040000      0.0000000E+00
  -1.030000      0.0000000E+00
  -1.020000      0.0000000E+00
  -1.010000      0.0000000E+00
  -1.000000      0.0000000E+00
 -0.9900000      0.0000000E+00
 -0.9800000      0.0000000E+00
 -0.9700000      0.0000000E+00
 -0.9600000      0.0000000E+00
 -0.9500000      0.0000000E+00
 -0.9400000      0.0000000E+00
 -0.9300000      0.0000000E+00
 -0.9200000      0.0000000E+00
 -0.9100000      0.0000000E+00
 -0.9000000      0.0000000E+00
 -0.8900000      0.0000000E+00
 -0.8800000      0.0000000E+00
 -0.8700000      0.0000000E+00
 -0.8600000      0.0000000E+00
 -0.8500000      0.0000000E+00
 -0.8400000      0.0000000E+00
 -0.8300000      0.0000000E+00
 -0.8200000      0.0000000E+00
 -0.8100000      0.0000000E+00
 -0.8000000      0.0000000E+00
 -0.7900000      0.0000000E+00
 -0.7800000      0.0000000E+00
 -0.7700000      0.0000000E+00
 -0.7600000      0.0000000E+00
 -0.7500000      0.0000000E+00
 -0.7400000      0.0000000E+00
 -0.7300000      0.0000000E+00
 -0.7200000      0.0000000E+00
 -0.7100000      0.0000000E+00
 -0.7000000      0.0000000E+00
 -0.6900000      0.0000000E+00
 -0.6800000      0.0000000E+00
 -0.6700000      0.0000000E+00
 -0.6600000      0.0000000E+00
 -0.6500000      0.0000000E+00
 -0.6400000      0.0000000E+00
 -0.6300000      0.0000000E+00
 -0.6200000      0.0000000E+00
 -0.6100000      0.0000000E+00
 -0.6000000      0.0000000E+00
 -0.5900000      0.0000000E+00
 -0.5800000      0.0000000E+00
 -0.5700000      0.0000000E+00
 -0.5600000      0.0000000E+00
 -0.5500000      0.0000000E+00
 -0.5400000      0.0000000E+00
 -0.5300000      0.0000000E+00
 -0.5200000      0.0000000E+00
 -0.5100000      0.0000000E+00
 -0.5000000      0.0000000E+00
 -0.4900000      0.0000000E+00
 -0.4800000      0.0000000E+00
 -0.4700000      0.0000000E+00
 -0.4600000      0.0000000E+00
 -0.4500000      0.0000000E+00
 -0.4400000      0.0000000E+00
 -0.4300000      0.0000000E+00
 -0.4200000      0.0000000E+00
 -0.4100000      0.0000000E+00
 -0.4000000      0.0000000E+00
 -0.3900000      0.0000000E+00
 -0.3800000      0.0000000E+00
 -0.3700000      0.0000000E+00
 -0.3600000      0.0000000E+00
 -0.3500000      0.0000000E+00
 -0.3400000      0.0000000E+00
 -0.3300000      0.0000000E+00
 -0.3200000      0.0000000E+00
 -0.3100000      0.0000000E+00
 -0.3000000      0.0000000E+00
 -0.2900000      0.0000000E+00
 -0.2800000      0.0000000E+00
 -0.2700000      0.0000000E+00
 -0.2600000      0.0000000E+00
 -0.2500000      0.0000000E+00
 -0.2400000      0.0000000E+00
 -0.2300000      0.0000000E+00
 -0.2200000      0.0000000E+00
 -0.2100000      0.0000000E+00
 -0.2000000      0.0000000E+00
 -0.1900000      0.0000000E+00
 -0.1800000      0.0000000E+00
 -0.1700000      0.0000000E+00
 -0.1600000      0.0000000E+00
 -0.1500000      0.0000000E+00
 -0.1400000      0.0000000E+00
 -0.1300000      0.0000000E+00
 -0.1200000      0.0000000E+00
 -0.1100000      0.0000000E+00
 -0.1000000      0.0000000E+00
 -9.0000004E-02  0.0000000E+00
 -7.9999998E-02  0.0000000E+00
 -7.0000000E-02  0.0000000E+00
 -5.9999999E-02  0.0000000E+00
 -5.0000001E-02  0.0000000E+00
 -3.9999999E-02  0.0000000E+00
 -2.9999999E-02  0.0000000E+00
 -2.0000000E-02  0.0000000E+00
 -9.9999998E-03  0.0000000E+00
 -3.4694470E-17  0.0000000E+00
  9.9999998E-03  0.0000000E+00
  2.0000000E-02  0.0000000E+00
  2.9999999E-02  0.0000000E+00
  3.9999999E-02  0.0000000E+00
  5.0000001E-02  0.0000000E+00
  5.9999999E-02  0.0000000E+00
  7.0000000E-02  0.0000000E+00
  7.9999998E-02  0.0000000E+00
  9.0000004E-02  0.0000000E+00
  0.1000000      0.0000000E+00
  0.1100000      0.0000000E+00
  0.1200000      0.0000000E+00
  0.1300000      0.0000000E+00
  0.1400000      0.0000000E+00
  0.1500000      0.0000000E+00
  0.1600000      0.0000000E+00
  0.1700000      0.0000000E+00
  0.1800000      0.0000000E+00
  0.1900000      0.0000000E+00
  0.2000000      0.0000000E+00
  0.2100000     -1.5246284E-38
  0.2200000     -2.2612263E-38
  0.2300000     -3.1139750E-38
  0.2400000     -3.9388036E-38
  0.2500000     -4.6417639E-38
  0.2600000     -5.5634744E-38
  0.2700000     -6.7289214E-38
  0.2800000     -7.8540329E-38
  0.2900000     -8.7478052E-38
  0.3000000     -9.0996718E-38
  0.3100000     -9.2579984E-38
  0.3200000     -9.2865933E-38
  0.3300000     -6.6328400E-38
  0.3400000      0.0000000E+00
  0.3500000      5.0214639E-38
  0.3600000      7.1377122E-38
  0.3700000      5.5121858E-38
  0.3800000      2.8650870E-38
  0.3900000     -1.7485059E-38
  0.4000000     -6.7580869E-38
  0.4100000     -1.1430088E-37
  0.4200000     -1.5931172E-37
  0.4300000     -1.6717504E-37
  0.4400000     -8.8821247E-38
  0.4500000      5.9287458E-38
  0.4600000      2.4860429E-37
  0.4700000      4.8943952E-37
  0.4800000      7.8593670E-37
  0.4900000      1.1211863E-36
  0.5000000      1.4413205E-36
  0.5100000      1.7318896E-36
  0.5200000      1.9757329E-36
  0.5300000      1.9881956E-36
  0.5400000      1.8408036E-36
  0.5500000      1.8711384E-36
  0.5600000      2.0173308E-36
  0.5700000      2.0833393E-36
  0.5800000      2.1075308E-36
  0.5900000      2.0520613E-36
  0.6000000      1.8733804E-36
  0.6100000      1.6913471E-36
  0.6200000      1.8037358E-36
  0.6300000      2.2628580E-36
  0.6400000      3.2165910E-36
  0.6500000      4.3446035E-36
  0.6600000      5.2019273E-36
  0.6700000      5.9069312E-36
  0.6800000      6.1395502E-36
  0.6900000      6.0118551E-36
  0.7000000      5.6126896E-36
  0.7100000      4.7455354E-36
  0.7200000      3.0289869E-36
  0.7300000      3.3527456E-37
  0.7400000     -2.9612020E-36
  0.7500000     -6.6169627E-36
  0.7600000     -1.0724955E-35
  0.7700000     -1.5083611E-35
  0.7800000     -1.9252435E-35
  0.7900000     -2.3128124E-35
  0.8000000     -2.6526798E-35
  0.8100000     -2.9668688E-35
  0.8200000     -3.2471350E-35
  0.8300000     -3.4880582E-35
  0.8400000     -3.7698950E-35
  0.8500000     -4.1074628E-35
  0.8600000     -4.3435156E-35
  0.8700000     -4.4425502E-35
  0.8800000     -4.4869417E-35
  0.8900000     -4.4609867E-35
  0.9000000     -4.3694104E-35
  0.9100000     -4.3109579E-35
  0.9200000     -4.2230493E-35
  0.9300000     -4.0463451E-35
  0.9400000     -3.8611468E-35
  0.9500000     -3.6668829E-35
  0.9600000     -3.4481238E-35
  0.9700000     -3.3356896E-35
  0.9800000     -3.3034442E-35
  0.9900000     -3.1733233E-35
   1.000000     -2.9618032E-35
   1.010000     -2.6325119E-35
   1.020000     -2.1035740E-35
   1.030000     -1.3733102E-35
   1.040000     -4.3843234E-36
   1.050000      7.7962051E-36
   1.060000      2.2696777E-35
   1.070000      4.1899144E-35
   1.080000      6.5651790E-35
   1.090000      9.1546467E-35
   1.100000      1.1704932E-34
   1.110000      1.4006389E-34
   1.120000      1.6080628E-34
   1.130000      1.8079937E-34
   1.140000      2.0215934E-34
   1.150000      2.2481747E-34
   1.160000      2.4860149E-34
   1.170000      2.7320275E-34
   1.180000      2.8852920E-34
   1.190000      2.8961752E-34
   1.200000      2.8479057E-34
   1.210000      2.7907620E-34
   1.220000      2.7340125E-34
   1.230000      2.6829676E-34
   1.240000      2.6509048E-34
   1.250000      2.6535274E-34
   1.260000      2.6414598E-34
   1.270000      2.5590912E-34
   1.280000      2.4862215E-34
   1.290000      2.4815044E-34
   1.300000      2.4762059E-34
   1.310000      2.4190785E-34
   1.320000      2.3040748E-34
   1.330000      2.1026219E-34
   1.340000      1.7986028E-34
   1.350000      1.3846749E-34
   1.360000      8.3291437E-35
   1.370000      1.0110756E-35
   1.380000     -8.0427984E-35
   1.390000     -1.8375111E-34
   1.400000     -2.8763587E-34
   1.410000     -3.7559173E-34
   1.420000     -4.4852038E-34
   1.430000     -5.1227231E-34
   1.440000     -5.6582563E-34
   1.450000     -6.0925803E-34
   1.460000     -6.4858544E-34
   1.470000     -6.9128137E-34
   1.480000     -7.4358522E-34
   1.490000     -8.0794463E-34
   1.500000     -9.0816039E-34
   1.510000     -1.0386271E-33
   1.520000     -1.1627425E-33
   1.530000     -1.2738894E-33
   1.540000     -1.3850989E-33
   1.550000     -1.5028386E-33
   1.560000     -1.6154841E-33
   1.570000     -1.7105972E-33
   1.580000     -1.7717912E-33
   1.590000     -1.7993847E-33
   1.600000     -1.7944386E-33
   1.610000     -1.7573453E-33
   1.620000     -1.6959909E-33
   1.630000     -1.6104603E-33
   1.640000     -1.5059895E-33
   1.650000     -1.3835142E-33
   1.660000     -1.2467830E-33
   1.670000     -1.0986163E-33
   1.680000     -9.3004140E-34
   1.690000     -7.3613401E-34
   1.700000     -5.1291240E-34
   1.710000     -2.5333384E-34
   1.720000      4.9864132E-35
   1.730000      4.0510795E-34
   1.740000      8.2301704E-34
   1.750000      1.3022776E-33
   1.760000      1.8408851E-33
   1.770000      2.4381981E-33
   1.780000      3.0868371E-33
   1.790000      3.7818361E-33
   1.800000      4.5212294E-33
   1.810000      5.2991631E-33
   1.820000      6.1058446E-33
   1.830000      6.9334411E-33
   1.840000      7.7690009E-33
   1.850000      8.6032859E-33
   1.860000      9.4305180E-33
   1.870000      1.0243666E-32
   1.880000      1.1037954E-32
   1.890000      1.1806772E-32
   1.900000      1.2546964E-32
   1.910000      1.3255662E-32
   1.920000      1.3924333E-32
   1.930000      1.4542833E-32
   1.940000      1.5102793E-32
   1.950000      1.5591159E-32
   1.960000      1.5991460E-32
   1.970000      1.6284723E-32
   1.980000      1.6448305E-32
   1.990000      1.6462935E-32
   2.000000      1.6308114E-32
   2.010000      1.5959749E-32
   2.020000      1.5395372E-32
   2.030000      1.4597784E-32
   2.040000      1.3550610E-32
   2.050000      1.2237416E-32
   2.060000      1.0644873E-32
   2.070000      8.7623296E-33
   2.080000      6.5807421E-33
   2.090000      4.0921192E-33
   2.100000      1.2891381E-33
   2.110000     -1.8339220E-33
   2.120000     -5.2800657E-33
   2.130000     -9.0551224E-33
   2.140000     -1.3163581E-32
   2.150000     -1.7605181E-32
   2.160000     -2.2379038E-32
   2.170000     -2.7480772E-32
   2.180000     -3.2901769E-32
   2.190000     -3.8628531E-32
   2.200000     -4.4641952E-32
   2.210000     -5.0917325E-32
   2.220000     -5.7423787E-32
   2.230000     -6.4123852E-32
   2.240000     -7.0974421E-32
   2.250000     -7.7927206E-32
   2.260000     -8.4928997E-32
   2.270000     -9.1922277E-32
   2.280000     -9.8846003E-32
   2.290000     -1.0563611E-31
   2.300000     -1.1222556E-31
   2.310000     -1.1854484E-31
   2.320000     -1.2452054E-31
   2.330000     -1.3007714E-31
   2.340000     -1.3513630E-31
   2.350000     -1.3961218E-31
   2.360000     -1.4341497E-31
   2.370000     -1.4645012E-31
   2.380000     -1.4861670E-31
   2.390000     -1.4980933E-31
   2.400000     -1.4991514E-31
   2.410000     -1.4882126E-31
   2.420000     -1.4641011E-31
   2.430000     -1.4256220E-31
   2.440000     -1.3716034E-31
   2.450000     -1.3008588E-31
   2.460000     -1.2122637E-31
   2.470000     -1.1047577E-31
   2.480000     -9.7736689E-32
   2.490000     -8.2921511E-32
   2.500000     -6.5954449E-32
   2.510000     -4.6773531E-32
   2.520000     -2.5331204E-32
   2.530000     -1.5953754E-33
   2.540000      2.4448818E-32
   2.550000      5.2798498E-32
   2.560000      8.3432428E-32
   2.570000      1.1630925E-31
   2.580000      1.5136657E-31
   2.590000      1.8851932E-31
   2.600000      2.2765858E-31
   2.610000      2.6865023E-31
   2.620000      3.1133356E-31
   2.630000      3.5551999E-31
   2.640000      4.0099211E-31
   2.650000      4.4750299E-31
   2.660000      4.9477592E-31
   2.670000      5.4250400E-31
   2.680000      5.9035061E-31
   2.690000      6.3794958E-31
   2.700000      6.8490564E-31
   2.710000      7.3079558E-31
   2.720000      7.7516908E-31
   2.730000      8.1754936E-31
   2.740000      8.5743360E-31
   2.750000      8.9429372E-31
   2.760000      9.2757742E-31
   2.770000      9.5670805E-31
   2.780000      9.8108658E-31
   2.790000      1.0000924E-30
   2.800000      1.0130855E-30
   2.810000      1.0194084E-30
   2.820000      1.0183901E-30
   2.830000      1.0093491E-30
   2.840000      9.9159964E-31
   2.850000      9.6445757E-31
   2.860000      9.2724800E-31
   2.870000      8.7931172E-31
   2.880000      8.2001517E-31
   2.890000      7.4875948E-31
   2.900000      6.6498961E-31
   2.910000      5.6820392E-31
   2.920000      4.5796385E-31
   2.930000      3.3390340E-31
   2.940000      1.9573732E-31
   2.950000      4.3270065E-32
   2.960000     -1.2359678E-31
   2.970000     -3.0485677E-31
   2.980000     -5.0039168E-31
   2.990000     -7.0996534E-31
   3.000000     -9.3321801E-31
   3.010000     -1.1696599E-30
   3.020000     -1.4186660E-30
   3.030000     -1.6794718E-30
   3.040000     -1.9511673E-30
   3.050000     -2.2326915E-30
   3.060000     -2.5228283E-30
   3.070000     -2.8202039E-30
   3.080000     -3.1232806E-30
   3.090000     -3.4303532E-30
   3.100000     -3.7395473E-30
   3.110000     -4.0488148E-30
   3.120000     -4.3559337E-30
   3.130000     -4.6585052E-30
   3.140000     -4.9539530E-30
   3.150000     -5.2395244E-30
   3.160000     -5.5122910E-30
   3.170000     -5.7691506E-30
   3.180000     -6.0068326E-30
   3.190000     -6.2219006E-30
   3.200000     -6.4107603E-30
   3.210000     -6.5696690E-30
   3.220000     -6.6947514E-30
   3.230000     -6.7820066E-30
   3.240000     -6.8273314E-30
   3.250000     -6.8265384E-30
   3.260000     -6.7753824E-30
   3.270000     -6.6695894E-30
   3.280000     -6.5048841E-30
   3.290000     -6.2770281E-30
   3.300000     -5.9818515E-30
   3.310000     -5.6152978E-30
   3.320000     -5.1734661E-30
   3.330000     -4.6526484E-30
   3.340000     -4.0493794E-30
   3.350000     -3.3604747E-30
   3.360000     -2.5830785E-30
   3.370000     -1.7147041E-30
   3.380000     -7.5328076E-31
   3.390000      3.0280981E-31
   3.400000      1.4546868E-30
   3.410000      2.7029355E-30
   3.420000      4.0475671E-30
   3.430000      5.4879750E-30
   3.440000      7.0229043E-30
   3.450000      8.6504069E-30
   3.460000      1.0367799E-29
   3.470000      1.2171630E-29
   3.480000      1.4057638E-29
   3.490000      1.6020711E-29
   3.500000      1.8054836E-29
   3.510000      2.0153074E-29
   3.520000      2.2307505E-29
   3.530000      2.4509192E-29
   3.540000      2.6748149E-29
   3.550000      2.9013289E-29
   3.560000      3.1292395E-29
   3.570000      3.3572110E-29
   3.580000      3.5837876E-29
   3.590000      3.8073938E-29
   3.600000      4.0263314E-29
   3.610000      4.2387801E-29
   3.620000      4.4427981E-29
   3.630000      4.6363222E-29
   3.640000      4.8171703E-29
   3.650000      4.9830458E-29
   3.660000      5.1315434E-29
   3.670000      5.2601516E-29
   3.680000      5.3662637E-29
   3.690000      5.4471865E-29
   3.700000      5.5001478E-29
   3.710000      5.5223104E-29
   3.720000      5.5107831E-29
   3.730000      5.4626361E-29
   3.740000      5.3749136E-29
   3.750000      5.2446503E-29
   3.760000      5.0688887E-29
   3.770000      4.8446948E-29
   3.780000      4.5691755E-29
   3.790000      4.2394987E-29
   3.800000      3.8529110E-29
   3.810000      3.4067582E-29
   3.820000      2.8985038E-29
   3.830000      2.3257541E-29
   3.840000      1.6862738E-29
   3.850000      9.7801333E-30
   3.860000      1.9913141E-30
   3.870000     -6.5197859E-30
   3.880000     -1.5766635E-29
   3.890000     -2.5759858E-29
   3.900000     -3.6506884E-29
   3.910000     -4.8011670E-29
   3.920000     -6.0274439E-29
   3.930000     -7.3291312E-29
   3.940000     -8.7053941E-29
   3.950000     -1.0154916E-28
   3.960000     -1.1675864E-28
   3.970000     -1.3265858E-28
   3.980000     -1.4921934E-28
   3.990000     -1.6640502E-28
   4.000000     -1.8417319E-28
   4.010000     -2.0247446E-28
   4.020000     -2.2125223E-28
   4.030000     -2.4044241E-28
   4.040000     -2.5997303E-28
   4.050000     -2.7976405E-28
   4.060000     -2.9972718E-28
   4.070000     -3.1976562E-28
   4.080000     -3.3977393E-28
   4.090000     -3.5963790E-28
   4.100000     -3.7923438E-28
   4.110000     -3.9843145E-28
   4.120000     -4.1708820E-28
   4.130000     -4.3505491E-28
   4.140000     -4.5217311E-28
   4.150000     -4.6827561E-28
   4.160000     -4.8318684E-28
   4.170000     -4.9672266E-28
   4.180000     -5.0869097E-28
   4.190000     -5.1889189E-28
   4.200000     -5.2711783E-28
   4.210000     -5.3315403E-28
   4.220000     -5.3677940E-28
   4.230000     -5.3776620E-28
   4.240000     -5.3588105E-28
   4.250000     -5.3088524E-28
   4.260000     -5.2253575E-28
   4.270000     -5.1058589E-28
   4.280000     -4.9478585E-28
   4.290000     -4.7488386E-28
   4.300000     -4.5062731E-28
   4.310000     -4.2176349E-28
   4.320000     -3.8804111E-28
   4.330000     -3.4921137E-28
   4.340000     -3.0502970E-28
   4.350000     -2.5525719E-28
   4.360000     -1.9966219E-28
   4.370000     -1.3802225E-28
   4.380000     -7.0125601E-29
   4.390000      4.2263863E-30
   4.400000      8.5217411E-29
   4.410000      1.7301404E-28
   4.420000      2.6776334E-28
   4.430000      3.6959101E-28
   4.440000      4.7859865E-28
   4.450000      5.9486136E-28
   4.460000      7.1842541E-28
   4.470000      8.4930602E-28
   4.480000      9.8748437E-28
   4.490000      1.1329051E-27
   4.500000      1.2854740E-27
   4.510000      1.4450549E-27
   4.520000      1.6114684E-27
   4.530000      1.7844883E-27
   4.540000      1.9638384E-27
   4.550000      2.1491914E-27
   4.560000      2.3401645E-27
   4.570000      2.5363190E-27
   4.580000      2.7371549E-27
   4.590000      2.9421105E-27
   4.600000      3.1505597E-27
   4.610000      3.3618097E-27
   4.620000      3.5750961E-27
   4.630000      3.7895830E-27
   4.640000      4.0043604E-27
   4.650000      4.2184414E-27
   4.660000      4.4307598E-27
   4.670000      4.6401688E-27
   4.680000      4.8454398E-27
   4.690000      5.0452612E-27
   4.700000      5.2382356E-27
   4.710000      5.4228806E-27
   4.720000      5.5976283E-27
   4.730000      5.7608251E-27
   4.740000      5.9107329E-27
   4.750000      6.0455280E-27
   4.760000      6.1633028E-27
   4.770000      6.2620692E-27
   4.780000      6.3397596E-27
   4.790000      6.3942299E-27
   4.800000      6.4232618E-27
   4.810000      6.4245687E-27
   4.820000      6.3957988E-27
   4.830000      6.3345404E-27
   4.840000      6.2383298E-27
   4.850000      6.1046544E-27
   4.860000      5.9309610E-27
   4.870000      5.7146652E-27
   4.880000      5.4531570E-27
   4.890000      5.1438111E-27
   4.900000      4.7839969E-27
   4.910000      4.3710867E-27
   4.920000      3.9024699E-27
   4.930000      3.3755624E-27
   4.940000      2.7878242E-27
   4.950000      2.1367690E-27
   4.960000      1.4199793E-27
   4.970000      6.3512061E-28
   4.980000     -2.2003904E-28
   4.990000     -1.1476128E-27
   5.000000     -2.1495799E-27
   5.010000     -3.2277577E-27
   5.020000     -4.3837898E-27
   5.030000     -5.6191202E-27
   5.040000     -6.9349694E-27
   5.050000     -8.3323125E-27
   5.060000     -9.8118612E-27
   5.070000     -1.1374035E-26
   5.080000     -1.3018929E-26
   5.090000     -1.4746296E-26
   5.100000     -1.6555523E-26
   5.110000     -1.8445596E-26
   5.120000     -2.0415072E-26
   5.130000     -2.2462055E-26
   5.140000     -2.4584155E-26
   5.150000     -2.6778478E-26
   5.160000     -2.9041597E-26
   5.170000     -3.1369507E-26
   5.180000     -3.3757595E-26
   5.190000     -3.6200645E-26
   5.200000     -3.8692774E-26
   5.210000     -4.1227409E-26
   5.220000     -4.3797292E-26
   5.230000     -4.6394432E-26
   5.240000     -4.9010076E-26
   5.250000     -5.1634706E-26
   5.260000     -5.4257982E-26
   5.270000     -5.6868761E-26
   5.280000     -5.9455054E-26
   5.290000     -6.2004005E-26
   5.300000     -6.4501890E-26
   5.310000     -6.6934090E-26
   5.320000     -6.9285092E-26
   5.330000     -7.1538474E-26
   5.340000     -7.3676903E-26
   5.350000     -7.5682138E-26
   5.360000     -7.7535018E-26
   5.370000     -7.9215465E-26
   5.380000     -8.0702541E-26
   5.390000     -8.1974419E-26
   5.400000     -8.3008406E-26
   5.410000     -8.3780985E-26
   5.420000     -8.4267817E-26
   5.430000     -8.4443794E-26
   5.440000     -8.4283107E-26
   5.450000     -8.3759260E-26
   5.460000     -8.2845137E-26
   5.470000     -8.1513028E-26
   5.480000     -7.9734763E-26
   5.490000     -7.7481752E-26
   5.500000     -7.4725065E-26
   5.510000     -7.1435509E-26
   5.520000     -6.7583785E-26
   5.530000     -6.3140569E-26
   5.540000     -5.8076605E-26
   5.550000     -5.2362830E-26
   5.560000     -4.5970558E-26
   5.570000     -3.8871596E-26
   5.580000     -3.1038379E-26
   5.590000     -2.2444103E-26
   5.600000     -1.3062876E-26
   5.610000     -2.8699813E-27
   5.620000      8.1579419E-27
   5.630000      2.0042803E-26
   5.640000      3.2804771E-26
   5.650000      4.6462105E-26
   5.660000      6.1030933E-26
   5.670000      7.6525018E-26
   5.680000      9.2955480E-26
   5.690000      1.1033065E-25
   5.700000      1.2865576E-25
   5.710000      1.4793265E-25
   5.720000      1.6815956E-25
   5.730000      1.8933082E-25
   5.740000      2.1143664E-25
   5.750000      2.3446280E-25
   5.760000      2.5839033E-25
   5.770000      2.8319527E-25
   5.780000      3.0884831E-25
   5.790000      3.3531474E-25
   5.800000      3.6255391E-25
   5.810000      3.9051908E-25
   5.820000      4.1915715E-25
   5.830000      4.4840801E-25
   5.840000      4.7820477E-25
   5.850000      5.0847341E-25
   5.860000      5.3913239E-25
   5.870000      5.7009237E-25
   5.880000      6.0125608E-25
   5.890000      6.3251819E-25
   5.900000      6.6376502E-25
   5.910000      6.9487439E-25
   5.920000      7.2571535E-25
   5.930000      7.5614808E-25
   5.940000      7.8602401E-25
   5.950000      8.1518554E-25
   5.960000      8.4346586E-25
   5.970000      8.7068915E-25
   5.980000      8.9667029E-25
   5.990000      9.2121540E-25
   6.000000      9.4412145E-25
   6.010000      9.6517664E-25
   6.020000      9.8416009E-25
   6.030000      1.0008427E-24
   6.040000      1.0149872E-24
   6.050000      1.0263482E-24
   6.060000      1.0346726E-24
   6.070000      1.0397006E-24
   6.080000      1.0411650E-24
   6.090000      1.0387926E-24
   6.100000      1.0323048E-24
   6.110000      1.0214178E-24
   6.120000      1.0058436E-24
   6.130000      9.8529102E-25
   6.140000      9.5946578E-25
   6.150000      9.2807218E-25
   6.160000      8.9081378E-25
   6.170000      8.4739438E-25
   6.180000      7.9751934E-25
   6.190000      7.4089693E-25
   6.200000      6.7723965E-25
   6.210000      6.0626539E-25
   6.220000      5.2769849E-25
   6.230000      4.4127168E-25
   6.240000      3.4672752E-25
   6.250000      2.4382014E-25
   6.260000      1.3231713E-25
   6.270000      1.2001684E-26
   6.280000     -1.1732649E-25
   6.290000     -2.5584840E-25
   6.300000     -4.0372358E-25
   6.310000     -5.6108802E-25
   6.320000     -7.2805279E-25
   6.330000     -9.0470266E-25
   6.340000     -1.0910925E-24
   6.350000     -1.2872442E-24
   6.360000     -1.4931461E-24
   6.370000     -1.7087490E-24
   6.380000     -1.9339651E-24
   6.390000     -2.1686656E-24
   6.400000     -2.4126768E-24
   6.410000     -2.6657797E-24
   6.420000     -2.9277058E-24
   6.430000     -3.1981352E-24
   6.440000     -3.4766954E-24
   6.450000     -3.7629576E-24
   6.460000     -4.0564332E-24
   6.470000     -4.3565759E-24
   6.480000     -4.6627750E-24
   6.490000     -4.9743553E-24
   6.500000     -5.2905765E-24
   6.510000     -5.6106276E-24
   6.520000     -5.9336275E-24
   6.530000     -6.2586224E-24
   6.540000     -6.5845853E-24
   6.550000     -6.9104160E-24
   6.560000     -7.2349360E-24
   6.570000     -7.5568907E-24
   6.580000     -7.8749491E-24
   6.590000     -8.1877009E-24
   6.600000     -8.4936575E-24
   6.610000     -8.7912505E-24
   6.620000     -9.0788369E-24
   6.630000     -9.3546921E-24
   6.640000     -9.6170191E-24
   6.650000     -9.8639420E-24
   6.660000     -1.0093511E-23
   6.670000     -1.0303707E-23
   6.680000     -1.0492442E-23
   6.690000     -1.0657558E-23
   6.700000     -1.0796838E-23
   6.710000     -1.0908002E-23
   6.720000     -1.0988715E-23
   6.730000     -1.1036593E-23
   6.740000     -1.1049205E-23
   6.750000     -1.1024079E-23
   6.760000     -1.0958712E-23
   6.770000     -1.0850570E-23
   6.780000     -1.0697098E-23
   6.790000     -1.0495730E-23
   6.800000     -1.0243892E-23
   6.810000     -9.9390179E-24
   6.820000     -9.5785518E-24
   6.830000     -9.1599594E-24
   6.840000     -8.6807390E-24
   6.850000     -8.1384358E-24
   6.860000     -7.5306492E-24
   6.870000     -6.8550490E-24
   6.880000     -6.1093826E-24
   6.890000     -5.2914884E-24
   6.900000     -4.3993167E-24
   6.910000     -3.4309399E-24
   6.920000     -2.3845595E-24
   6.930000     -1.2585275E-24
   6.940000     -5.1366422E-26
   6.950000      1.2382188E-24
   6.960000      2.6113298E-24
   6.970000      4.0688503E-24
   6.980000      5.6114307E-24
   6.990000      7.2394759E-24
   7.000000      8.9531256E-24
   7.010000      1.0752235E-23
   7.020000      1.2636358E-23
   7.030000      1.4604734E-23
   7.040000      1.6656262E-23
   7.050000      1.8789480E-23
   7.060000      2.1002571E-23