  -2.600000      0.0000000E+00
  -2.590000      0.0000000E+00
  -2.580000      0.0000000E+00
  -2.570000      0.0000000E+00
  -2.560000      0.0000000E+00
  -2.550000      0.0000000E+00
  -2.540000      0.0000000E+00
  -2.530000      0.0000000E+00
  -2.520000      0.0000000E+00
  -2.510000      0.0000000E+00
  -2.500000      0.0000000E+00
  -2.490000      0.0000000E+00
  -2.480000      0.0000000E+00
  -2.470000      0.0000000E+00
  -2.460000      0.0000000E+00
  -2.450000      0.0000000E+00
  -2.440000      0.0000000E+00
  -2.430000      0.0000000E+00
  -2.420000      0.0000000E+00
  -2.410000      0.0000000E+00
  -2.400000      0.0000000E+00
  -2.390000      0.0000000E+00
  -2.380000      0.0000000E+00
  -2.370000      0.0000000E+00
  -2.360000      0.0000000E+00
  -2.350000      0.0000000E+00
  -2.340000      0.0000000E+00
  -2.330000      0.0000000E+00
  -2.320000      0.0000000E+00
  -2.310000      0.0000000E+00
  -2.300000      0.0000000E+00
  -2.290000      0.0000000E+00
  -2.280000      0.0000000E+00
  -2.270000      0.0000000E+00
  -2.260000      0.0000000E+00
  -2.250000      0.0000000E+00
  -2.240000      0.0000000E+00
  -2.230000      0.0000000E+00
  -2.220000      0.0000000E+00
  -2.210000      0.0000000E+00
  -2.200000      0.0000000E+00
  -2.190000      0.0000000E+00
  -2.180000      0.0000000E+00
  -2.170000      0.0000000E+00
  -2.160000      0.0000000E+00
  -2.150000      0.0000000E+00
  -2.140000      0.0000000E+00
  -2.130000      0.0000000E+00
  -2.120000      0.0000000E+00
  -2.110000      0.0000000E+00
  -2.100000      0.0000000E+00
  -2.090000      0.0000000E+00
  -2.080000      0.0000000E+00
  -2.070000      0.0000000E+00
  -2.060000      0.0000000E+00
  -2.050000      0.0000000E+00
  -2.040000      0.0000000E+00
  -2.030000      0.0000000E+00
  -2.020000      0.0000000E+00
  -2.010000      0.0000000E+00
  -2.000000      0.0000000E+00
  -1.990000      0.0000000E+00
  -1.980000      0.0000000E+00
  -1.970000      0.0000000E+00
  -1.960000      0.0000000E+00
  -1.950000      0.0000000E+00
  -1.940000      0.0000000E+00
  -1.930000      0.0000000E+00
  -1.920000      0.0000000E+00
  -1.910000      0.0000000E+00
  -1.900000      0.0000000E+00
  -1.890000      0.0000000E+00
  -1.880000      0.0000000E+00
  -1.870000      0.0000000E+00
  -1.860000      0.0000000E+00
  -1.850000      0.0000000E+00
  -1.840000      0.0000000E+00
  -1.830000      0.0000000E+00
  -1.820000      0.0000000E+00
  -1.810000      0.0000000E+00
  -1.800000      0.0000000E+00
  -1.790000      0.0000000E+00
  -1.780000      0.0000000E+00
  -1.770000      0.0000000E+00
  -1.760000      0.0000000E+00
  -1.750000      0.0000000E+00
  -1.740000      0.0000000E+00
  -1.730000      0.0000000E+00
  -1.720000      0.0000000E+00
  -1.710000      0.0000000E+00
  -1.700000      0.0000000E+00
  -1.690000      0.0000000E+00
  -1.680000      0.0000000E+00
  -1.670000      0.0000000E+00
  -1.660000      0.0000000E+00
  -1.650000      0.0000000E+00
  -1.640000      0.0000000E+00
  -1.630000      0.0000000E+00
  -1.620000      0.0000000E+00
  -1.610000      0.0000000E+00
  -1.600000      0.0000000E+00
  -1.590000      0.0000000E+00
  -1.580000      0.0000000E+00
  -1.570000      0.0000000E+00
  -1.560000      0.0000000E+00
  -1.550000      0.0000000E+00
  -1.540000      0.0000000E+00
  -1.530000      0.0000000E+00
  -1.520000      0.0000000E+00
  -1.510000      0.0000000E+00
  -1.500000      0.0000000E+00
  -1.490000      0.0000000E+00
  -1.480000      0.0000000E+00
  -1.470000      0.0000000E+00
  -1.460000      0.0000000E+00
  -1.450000      0.0000000E+00
  -1.440000      0.0000000E+00
  -1.430000      0.0000000E+00
  -1.420000      0.0000000E+00
  -1.410000      0.0000000E+00
  -1.400000      0.0000000E+00
  -1.390000      0.0000000E+00
  -1.380000      0.0000000E+00
  -1.370000      0.0000000E+00
  -1.360000      0.0000000E+00
  -1.350000      0.0000000E+00
  -1.340000      0.0000000E+00
  -1.330000      0.0000000E+00
  -1.320000      0.0000000E+00
  -1.310000      0.0000000E+00
  -1.300000      0.0000000E+00
  -1.290000      0.0000000E+00
  -1.280000      0.0000000E+00
  -1.270000      0.0000000E+00
  -1.260000      0.0000000E+00
  -1.250000      0.0000000E+00
  -1.240000      0.0000000E+00
  -1.230000      0.0000000E+00
  -1.220000      0.0000000E+00
  -1.210000      0.0000000E+00
  -1.200000      0.0000000E+00
  -1.190000      0.0000000E+00
  -1.180000      0.0000000E+00
  -1.170000      0.0000000E+00
  -1.160000      0.0000000E+00
  -1.150000      0.0000000E+00
  -1.140000      0.0000000E+00
  -1.130000      0.0000000E+00
  -1.120000      0.0000000E+00
  -1.110000      0.0000000E+00
  -1.100000      0.0000000E+00
  -1.090000      0.0000000E+00
  -1.080000      0.0000000E+00
  -1.070000      0.0000000E+00
  -1.060000      0.0000000E+00
  -1.050000      0.0000000E+00
  -1.040000      0.0000000E+00
  -1.030000      0.0000000E+00
  -1.020000      0.0000000E+00
  -1.010000      0.0000000E+00
  -1.000000      0.0000000E+00
 -0.9900000      0.0000000E+00
 -0.9800000      0.0000000E+00
 -0.9700000      0.0000000E+00
 -0.9600000      0.0000000E+00
 -0.9500000      0.0000000E+00
 -0.9400000      0.0000000E+00
 -0.9300000      0.0000000E+00
 -0.9200000      0.0000000E+00
 -0.9100000      0.0000000E+00
 -0.9000000      0.0000000E+00
 -0.8900000      0.0000000E+00
 -0.8800000      0.0000000E+00
 -0.8700000      0.0000000E+00
 -0.8600000      0.0000000E+00
 -0.8500000      0.0000000E+00
 -0.8400000      0.0000000E+00
 -0.8300000      0.0000000E+00
 -0.8200000      0.0000000E+00
 -0.8100000      0.0000000E+00
 -0.8000000      0.0000000E+00
 -0.7900000      0.0000000E+00
 -0.7800000      0.0000000E+00
 -0.7700000      0.0000000E+00
 -0.7600000      0.0000000E+00
 -0.7500000      0.0000000E+00
 -0.7400000      0.0000000E+00
 -0.7300000      0.0000000E+00
 -0.7200000      0.0000000E+00
 -0.7100000      0.0000000E+00
 -0.7000000      0.0000000E+00
 -0.6900000      0.0000000E+00
 -0.6800000      0.0000000E+00
 -0.6700000      0.0000000E+00
 -0.6600000      0.0000000E+00
 -0.6500000      0.0000000E+00
 -0.6400000      0.0000000E+00
 -0.6300000      0.0000000E+00
 -0.6200000      0.0000000E+00
 -0.6100000      0.0000000E+00
 -0.6000000      0.0000000E+00
 -0.5900000      0.0000000E+00
 -0.5800000      0.0000000E+00
 -0.5700000      0.0000000E+00
 -0.5600000      0.0000000E+00
 -0.5500000      0.0000000E+00
 -0.5400000      0.0000000E+00
 -0.5300000      0.0000000E+00
 -0.5200000      0.0000000E+00
 -0.5100000      0.0000000E+00
 -0.5000000      0.0000000E+00
 -0.4900000      0.0000000E+00
 -0.4800000      0.0000000E+00
 -0.4700000      0.0000000E+00
 -0.4600000      0.0000000E+00
 -0.4500000      0.0000000E+00
 -0.4400000      0.0000000E+00
 -0.4300000      0.0000000E+00
 -0.4200000      0.0000000E+00
 -0.4100000      0.0000000E+00
 -0.4000000      0.0000000E+00
 -0.3900000      0.0000000E+00
 -0.3800000      0.0000000E+00
 -0.3700000      0.0000000E+00
 -0.3600000      0.0000000E+00
 -0.3500000      0.0000000E+00
 -0.3400000      0.0000000E+00
 -0.3300000      0.0000000E+00
 -0.3200000      0.0000000E+00
 -0.3100000      0.0000000E+00
 -0.3000000      0.0000000E+00
 -0.2900000      0.0000000E+00
 -0.2800000      0.0000000E+00
 -0.2700000      0.0000000E+00
 -0.2600000      0.0000000E+00
 -0.2500000      0.0000000E+00
 -0.2400000      0.0000000E+00
 -0.2300000      0.0000000E+00
 -0.2200000      0.0000000E+00
 -0.2100000      0.0000000E+00
 -0.2000000      0.0000000E+00
 -0.1900000      0.0000000E+00
 -0.1800000      0.0000000E+00
 -0.1700000      0.0000000E+00
 -0.1600000      0.0000000E+00
 -0.1500000      0.0000000E+00
 -0.1400000      0.0000000E+00
 -0.1300000      0.0000000E+00
 -0.1200000      0.0000000E+00
 -0.1100000      0.0000000E+00
 -0.1000000      0.0000000E+00
 -9.0000004E-02  0.0000000E+00
 -7.9999998E-02  0.0000000E+00
 -7.0000000E-02  0.0000000E+00
 -5.9999999E-02  0.0000000E+00
 -5.0000001E-02  0.0000000E+00
 -3.9999999E-02  0.0000000E+00
 -2.9999999E-02  0.0000000E+00
 -2.0000000E-02  0.0000000E+00
 -9.9999998E-03  0.0000000E+00
 -3.4694470E-17  0.0000000E+00
  9.9999998E-03  0.0000000E+00
  2.0000000E-02  0.0000000E+00
  2.9999999E-02  0.0000000E+00
  3.9999999E-02  0.0000000E+00
  5.0000001E-02  0.0000000E+00
  5.9999999E-02  0.0000000E+00
  7.0000000E-02  0.0000000E+00
  7.9999998E-02  0.0000000E+00
  9.0000004E-02  0.0000000E+00
  0.1000000      0.0000000E+00
  0.1100000      0.0000000E+00
  0.1200000      0.0000000E+00
  0.1300000      0.0000000E+00
  0.1400000      0.0000000E+00
  0.1500000      0.0000000E+00
  0.1600000      0.0000000E+00
  0.1700000      0.0000000E+00
  0.1800000      0.0000000E+00
  0.1900000      0.0000000E+00
  0.2000000      0.0000000E+00
  0.2100000      0.0000000E+00
  0.2200000      0.0000000E+00
  0.2300000      0.0000000E+00
  0.2400000      0.0000000E+00
  0.2500000      0.0000000E+00
  0.2600000      1.2191292E-38
  0.2700000      1.2902335E-38
  0.2800000      1.3827399E-38
  0.2900000      0.0000000E+00
  0.3000000     -1.4436942E-38
  0.3100000     -3.8156006E-38
  0.3200000     -6.7824163E-38
  0.3300000     -1.0330073E-37
  0.3400000     -1.4476657E-37
  0.3500000     -1.9429075E-37
  0.3600000     -2.5233448E-37
  0.3700000     -3.0852702E-37
  0.3800000     -3.5433500E-37
  0.3900000     -3.9204309E-37
  0.4000000     -4.1608336E-37
  0.4100000     -4.0998119E-37
  0.4200000     -3.7279131E-37
  0.4300000     -3.1596888E-37
  0.4400000     -2.4456822E-37
  0.4500000     -1.4719100E-37
  0.4600000     -1.5051575E-38
  0.4700000      1.3402126E-37
  0.4800000      2.9892432E-37
  0.4900000      4.8747801E-37
  0.5000000      7.1617441E-37
  0.5100000      9.9131396E-37
  0.5200000      1.2958832E-36
  0.5300000      1.6435426E-36
  0.5400000      2.0683962E-36
  0.5500000      2.5493265E-36
  0.5600000      3.0641326E-36
  0.5700000      3.6480184E-36
  0.5800000      4.2794502E-36
  0.5900000      4.9082945E-36
  0.6000000      5.5472084E-36
  0.6100000      6.1911596E-36
  0.6200000      6.8057177E-36
  0.6300000      7.4072588E-36
  0.6400000      8.0595205E-36
  0.6500000      8.7430714E-36
  0.6600000      9.2891045E-36
  0.6700000      9.6811402E-36
  0.6800000      9.9621302E-36
  0.6900000      1.0090476E-35
  0.7000000      9.9698128E-36
  0.7100000      9.4699487E-36
  0.7200000      8.6384256E-36
  0.7300000      7.4850672E-36
  0.7400000      5.9155218E-36
  0.7500000      3.8853981E-36
  0.7600000      1.3611726E-36
  0.7700000     -1.6677041E-36
  0.7800000     -5.3347799E-36
  0.7900000     -9.8197443E-36
  0.8000000     -1.5064296E-35
  0.8100000     -2.0318212E-35
  0.8200000     -2.5479756E-35
  0.8300000     -3.0780882E-35
  0.8400000     -3.6017368E-35
  0.8500000     -4.1256560E-35
  0.8600000     -4.6339589E-35
  0.8700000     -5.1203093E-35
  0.8800000     -5.5913112E-35
  0.8900000     -6.0389128E-35
  0.9000000     -6.4641789E-35
  0.9100000     -6.8671640E-35
  0.9200000     -7.2594473E-35
  0.9300000     -7.6397209E-35
  0.9400000     -7.9980125E-35
  0.9500000     -8.3672612E-35
  0.9600000     -8.7636530E-35
  0.9700000     -9.0780214E-35
  0.9800000     -9.2260379E-35
  0.9900000     -9.2903072E-35
   1.000000     -9.2942011E-35
   1.010000     -9.1930557E-35
   1.020000     -8.9676553E-35
   1.030000     -8.5336000E-35
   1.040000     -7.8990873E-35
   1.050000     -7.0793126E-35
   1.060000     -6.0109965E-35
   1.070000     -4.7346249E-35
   1.080000     -3.2110479E-35
   1.090000     -1.4240068E-35
   1.100000      5.3931679E-36
   1.110000      2.7137157E-35
   1.120000      5.1268962E-35
   1.130000      7.7452226E-35
   1.140000      1.0552658E-34
   1.150000      1.3514788E-34
   1.160000      1.6647539E-34
   1.170000      1.9967181E-34
   1.180000      2.3426096E-34
   1.190000      2.6959775E-34
   1.200000      3.0518848E-34
   1.210000      3.4062686E-34
   1.220000      3.7690739E-34
   1.230000      4.1383214E-34
   1.240000      4.4975116E-34
   1.250000      4.8161891E-34
   1.260000      5.0634121E-34
   1.270000      5.2877148E-34
   1.280000      5.5093065E-34
   1.290000      5.6822244E-34
   1.300000      5.7978109E-34
   1.310000      5.8633612E-34
   1.320000      5.8995899E-34
   1.330000      5.8934479E-34
   1.340000      5.8739411E-34
   1.350000      5.8375476E-34
   1.360000      5.7160663E-34
   1.370000      5.5117250E-34
   1.380000      5.2209008E-34
   1.390000      4.8294584E-34
   1.400000      4.3187401E-34
   1.410000      3.6964237E-34
   1.420000      2.9579701E-34
   1.430000      2.1137418E-34
   1.440000      1.1638237E-34
   1.450000      9.1796617E-36
   1.460000     -1.1366613E-34
   1.470000     -2.4815168E-34
   1.480000     -3.9515019E-34
   1.490000     -5.5634642E-34
   1.500000     -7.2432346E-34
   1.510000     -8.9871355E-34
   1.520000     -1.0820325E-33
   1.530000     -1.2750423E-33
   1.540000     -1.4742241E-33
   1.550000     -1.6808757E-33
   1.560000     -1.8897655E-33
   1.570000     -2.0960058E-33
   1.580000     -2.2998371E-33
   1.590000     -2.4991704E-33
   1.600000     -2.6921078E-33
   1.610000     -2.8744325E-33
   1.620000     -3.0442848E-33
   1.630000     -3.1944404E-33
   1.640000     -3.3214405E-33
   1.650000     -3.4262200E-33
   1.660000     -3.5019046E-33
   1.670000     -3.5439531E-33
   1.680000     -3.5480203E-33
   1.690000     -3.5083569E-33
   1.700000     -3.4197735E-33
   1.710000     -3.2777172E-33
   1.720000     -3.0769751E-33
   1.730000     -2.8139483E-33
   1.740000     -2.4852177E-33
   1.750000     -2.0856418E-33
   1.760000     -1.6089724E-33
   1.770000     -1.0523765E-33
   1.780000     -4.1377185E-34
   1.790000      3.0727585E-34
   1.800000      1.1107272E-33
   1.810000      1.9987751E-33
   1.820000      2.9697302E-33
   1.830000      4.0239853E-33
   1.840000      5.1596870E-33
   1.850000      6.3718913E-33
   1.860000      7.6566684E-33
   1.870000      9.0082371E-33
   1.880000      1.0419603E-32
   1.890000      1.1883071E-32
   1.900000      1.3389308E-32
   1.910000      1.4928167E-32
   1.920000      1.6488142E-32
   1.930000      1.8055703E-32
   1.940000      1.9616870E-32
   1.950000      2.1156190E-32
   1.960000      2.2656168E-32
   1.970000      2.4098744E-32
   1.980000      2.5464399E-32
   1.990000      2.6731620E-32
   2.000000      2.7877613E-32
   2.010000      2.8878226E-32
   2.020000      2.9707519E-32
   2.030000      3.0338475E-32
   2.040000      3.0743089E-32
   2.050000      3.0891953E-32
   2.060000      3.0754426E-32
   2.070000      3.0297497E-32
   2.080000      2.9488275E-32
   2.090000      2.8293776E-32
   2.100000      2.6682981E-32
   2.110000      2.4624476E-32
   2.120000      2.2085560E-32
   2.130000      1.9037037E-32
   2.140000      1.5451477E-32
   2.150000      1.1304047E-32
   2.160000      6.5731580E-33
   2.170000      1.2412234E-33
   2.180000     -4.7047986E-33
   2.190000     -1.1273055E-32
   2.200000     -1.8465188E-32
   2.210000     -2.6278605E-32
   2.220000     -3.4704087E-32
   2.230000     -4.3723764E-32
   2.240000     -5.3313723E-32
   2.250000     -6.3442623E-32
   2.260000     -7.4071596E-32
   2.270000     -8.5154104E-32
   2.280000     -9.6635921E-32
   2.290000     -1.0845502E-31
   2.300000     -1.2054162E-31
   2.310000     -1.3281812E-31
   2.320000     -1.4519903E-31
   2.330000     -1.5759100E-31
   2.340000     -1.6989289E-31
   2.350000     -1.8199543E-31
   2.360000     -1.9378122E-31
   2.370000     -2.0512482E-31
   2.380000     -2.1589261E-31
   2.390000     -2.2594254E-31
   2.400000     -2.3512450E-31
   2.410000     -2.4328001E-31
   2.420000     -2.5024274E-31
   2.430000     -2.5583847E-31
   2.440000     -2.5988579E-31
   2.450000     -2.6219707E-31
   2.460000     -2.6257908E-31
   2.470000     -2.6083434E-31
   2.480000     -2.5676274E-31
   2.490000     -2.5016323E-31
   2.500000     -2.4083627E-31
   2.510000     -2.2858560E-31
   2.520000     -2.1322149E-31
   2.530000     -1.9456477E-31
   2.540000     -1.7244735E-31
   2.550000     -1.4671736E-31
   2.560000     -1.1724352E-31
   2.570000     -8.3917090E-32
   2.580000     -4.6656000E-32
   2.590000     -5.4079018E-33
   2.600000      3.9846743E-32
   2.610000      8.9091369E-32
   2.620000      1.4227066E-31
   2.630000      1.9928830E-31
   2.640000      2.6000510E-31
   2.650000      3.2423731E-31
   2.660000      3.9175552E-31
   2.670000      4.6228347E-31
   2.680000      5.3549782E-31
   2.690000      6.1102798E-31
   2.700000      6.8845568E-31
   2.710000      7.6731522E-31
   2.720000      8.4709386E-31
   2.730000      9.2723211E-31
   2.740000      1.0071238E-30
   2.750000      1.0861167E-30
   2.760000      1.1635129E-30
   2.770000      1.2385684E-30
   2.780000      1.3104943E-30
   2.790000      1.3784572E-30
   2.800000      1.4415790E-30
   2.810000      1.4989382E-30
   2.820000      1.5495719E-30
   2.830000      1.5924770E-30
   2.840000      1.6266128E-30
   2.850000      1.6509053E-30
   2.860000      1.6642506E-30
   2.870000      1.6655216E-30
   2.880000      1.6535745E-30
   2.890000      1.6272571E-30
   2.900000      1.5854193E-30
   2.910000      1.5269240E-30
   2.920000      1.4506585E-30
   2.930000      1.3555502E-30
   2.940000      1.2405803E-30
   2.950000      1.1048004E-30
   2.960000      9.4734886E-31
   2.970000      7.6746813E-31
   2.980000      5.6452246E-31
   2.990000      3.3801436E-31
   3.000000      8.7601524E-32
   3.010000     -1.8688673E-31
   3.020000     -4.8543389E-31
   3.030000     -8.0782417E-31
   3.040000     -1.1536283E-30
   3.050000     -1.5221913E-30
   3.060000     -1.9126256E-30
   3.070000     -2.3238011E-30
   3.080000     -2.7543381E-30
   3.090000     -3.2026018E-30
   3.100000     -3.6666998E-30
   3.110000     -4.1444764E-30
   3.120000     -4.6335113E-30
   3.130000     -5.1311163E-30
   3.140000     -5.6343366E-30
   3.150000     -6.1399440E-30
   3.160000     -6.6444387E-30
   3.170000     -7.1440468E-30
   3.180000     -7.6347188E-30
   3.190000     -8.1121305E-30
   3.200000     -8.5716770E-30
   3.210000     -9.0084779E-30
   3.220000     -9.4173784E-30
   3.230000     -9.7929543E-30
   3.240000     -1.0129517E-29
   3.250000     -1.0421123E-29
   3.260000     -1.0661589E-29
   3.270000     -1.0844511E-29
   3.280000     -1.0963286E-29
   3.290000     -1.1011143E-29
   3.300000     -1.0981177E-29
   3.310000     -1.0866392E-29
   3.320000     -1.0659744E-29
   3.330000     -1.0354203E-29
   3.340000     -9.9428104E-30
   3.350000     -9.4187333E-30
   3.360000     -8.7753486E-30
   3.370000     -8.0063105E-30
   3.380000     -7.1056267E-30
   3.390000     -6.0677375E-30
   3.400000     -4.8875983E-30
   3.410000     -3.5607560E-30
   3.420000     -2.0834287E-30
   3.430000     -4.5257713E-31
   3.440000      1.3340152E-30
   3.450000      3.2776728E-30
   3.460000      5.3787650E-30
   3.470000      7.6366335E-30
   3.480000      1.0049541E-29
   3.490000      1.2614613E-29
   3.500000      1.5327790E-29
   3.510000      1.8183759E-29
   3.520000      2.1175926E-29
   3.530000      2.4296354E-29
   3.540000      2.7535710E-29
   3.550000      3.0883229E-29
   3.560000      3.4326647E-29
   3.570000      3.7852173E-29
   3.580000      4.1444417E-29
   3.590000      4.5086339E-29
   3.600000      4.8759202E-29
   3.610000      5.2442525E-29
   3.620000      5.6114027E-29
   3.630000      5.9749581E-29
   3.640000      6.3323186E-29
   3.650000      6.6806935E-29
   3.660000      7.0171005E-29
   3.670000      7.3383648E-29
   3.680000      7.6411210E-29
   3.690000      7.9218199E-29
   3.700000      8.1767306E-29
   3.710000      8.4019482E-29
   3.720000      8.5934091E-29
   3.730000      8.7469009E-29
   3.740000      8.8580776E-29
   3.750000      8.9224807E-29
   3.760000      8.9355572E-29
   3.770000      8.8926842E-29
   3.780000      8.7891950E-29
   3.790000      8.6204022E-29
   3.800000      8.3816291E-29
   3.810000      8.0682387E-29
   3.820000      7.6756608E-29
   3.830000      7.1994295E-29
   3.840000      6.6352138E-29
   3.850000      5.9788437E-29
   3.860000      5.2263473E-29
   3.870000      4.3739831E-29
   3.880000      3.4182702E-29
   3.890000      2.3560231E-29
   3.900000      1.1843864E-29
   3.910000     -9.9130586E-31
   3.920000     -1.4966244E-29
   3.930000     -3.0097563E-29
   3.940000     -4.6397142E-29
   3.950000     -6.3871745E-29
   3.960000     -8.2522643E-29
   3.970000     -1.0234516E-28
   3.980000     -1.2332819E-28
   3.990000     -1.4545373E-28
   4.000000     -1.6869632E-28
   4.010000     -1.9302268E-28
   4.020000     -2.1839107E-28
   4.030000     -2.4475067E-28
   4.040000     -2.7204126E-28
   4.050000     -3.0019249E-28
   4.060000     -3.2912340E-28
   4.070000     -3.5874206E-28
   4.080000     -3.8894485E-28
   4.090000     -4.1961618E-28
   4.100000     -4.5062808E-28
   4.110000     -4.8183989E-28
   4.120000     -5.1309807E-28
   4.130000     -5.4423593E-28
   4.140000     -5.7507349E-28
   4.150000     -6.0541738E-28
   4.160000     -6.3506115E-28
   4.170000     -6.6378509E-28
   4.180000     -6.9135666E-28
   4.190000     -7.1753053E-28
   4.200000     -7.4204916E-28
   4.210000     -7.6464301E-28
   4.220000     -7.8503115E-28
   4.230000     -8.0292159E-28
   4.240000     -8.1801207E-28
   4.250000     -8.2999049E-28
   4.260000     -8.3853565E-28
   4.270000     -8.4331802E-28
   4.280000     -8.4400047E-28
   4.290000     -8.4023903E-28
   4.300000     -8.3168386E-28
   4.310000     -8.1798048E-28
   4.320000     -7.9877015E-28
   4.330000     -7.7369166E-28
   4.340000     -7.4238229E-28
   4.350000     -7.0447941E-28
   4.360000     -6.5962195E-28
   4.370000     -6.0745207E-28
   4.380000     -5.4761704E-28
   4.390000     -4.7977101E-28
   4.400000     -4.0357780E-28
   4.410000     -3.1871295E-28
   4.420000     -2.2486631E-28
   4.430000     -1.2174477E-28
   4.440000     -9.0753942E-30
   4.450000      1.1339150E-28
   4.460000      2.4588003E-28
   4.470000      3.8858383E-28
   4.480000      5.4166380E-28
   4.490000      7.0524454E-28
   4.500000      8.7941033E-28
   4.510000      1.0642018E-27
   4.520000      1.2596126E-27
   4.530000      1.4655854E-27
   4.540000      1.6820084E-27
   4.550000      1.9087117E-27
   4.560000      2.1454655E-27
   4.570000      2.3919744E-27
   4.580000      2.6478756E-27
   4.590000      2.9127337E-27
   4.600000      3.1860403E-27
   4.610000      3.4672089E-27
   4.620000      3.7555719E-27
   4.630000      4.0503778E-27
   4.640000      4.3507878E-27
   4.650000      4.6558744E-27
   4.660000      4.9646160E-27
   4.670000      5.2758948E-27
   4.680000      5.5884948E-27
   4.690000      5.9010983E-27
   4.700000      6.2122823E-27
   4.710000      6.5205170E-27
   4.720000      6.8241622E-27
   4.730000      7.1214688E-27
   4.740000      7.4105717E-27
   4.750000      7.6894918E-27
   4.760000      7.9561337E-27
   4.770000      8.2082880E-27
   4.780000      8.4436266E-27
   4.790000      8.6597052E-27
   4.800000      8.8539668E-27
   4.810000      9.0237421E-27
   4.820000      9.1662509E-27
   4.830000      9.2786082E-27
   4.840000      9.3578255E-27
   4.850000      9.4008215E-27
   4.860000      9.4044222E-27
   4.870000      9.3653721E-27
   4.880000      9.2803415E-27
   4.890000      9.1459316E-27
   4.900000      8.9586912E-27
   4.910000      8.7151180E-27
   4.920000      8.4116801E-27
   4.930000      8.0448181E-27
   4.940000      7.6109670E-27
   4.950000      7.1065636E-27
   4.960000      6.5280651E-27
   4.970000      5.8719574E-27
   4.980000      5.1347831E-27
   4.990000      4.3131505E-27
   5.000000      3.4037530E-27
   5.010000      2.4033924E-27
   5.020000      1.3089952E-27
   5.030000      1.1763420E-28
   5.040000     -1.1734472E-27
   5.050000     -2.5668093E-27
   5.060000     -4.0647938E-27
   5.070000     -5.6694944E-27
   5.080000     -7.3827273E-27
   5.090000     -9.2060060E-27
   5.100000     -1.1140505E-26
   5.110000     -1.3187029E-26
   5.120000     -1.5345989E-26
   5.130000     -1.7617353E-26
   5.140000     -2.0000621E-26
   5.150000     -2.2494783E-26
   5.160000     -2.5098274E-26
   5.170000     -2.7808949E-26
   5.180000     -3.0624058E-26
   5.190000     -3.3540178E-26
   5.200000     -3.6553189E-26
   5.210000     -3.9658244E-26
   5.220000     -4.2849710E-26
   5.230000     -4.6121156E-26
   5.240000     -4.9465301E-26
   5.250000     -5.2873988E-26
   5.260000     -5.6338135E-26
   5.270000     -5.9847721E-26
   5.280000     -6.3391747E-26
   5.290000     -6.6958205E-26
   5.300000     -7.0534057E-26
   5.310000     -7.4105187E-26
   5.320000     -7.7656410E-26
   5.330000     -8.1171427E-26
   5.340000     -8.4632819E-26
   5.350000     -8.8022024E-26
   5.360000     -9.1319309E-26
   5.370000     -9.4503786E-26
   5.380000     -9.7553381E-26
   5.390000     -1.0044484E-25
   5.400000     -1.0315373E-25
   5.410000     -1.0565443E-25
   5.420000     -1.0792021E-25
   5.430000     -1.0992312E-25
   5.440000     -1.1163411E-25
   5.450000     -1.1302304E-25
   5.460000     -1.1405867E-25
   5.470000     -1.1470879E-25
   5.480000     -1.1494019E-25
   5.490000     -1.1471874E-25
   5.500000     -1.1400948E-25
   5.510000     -1.1277668E-25
   5.520000     -1.1098390E-25
   5.530000     -1.0859417E-25
   5.540000     -1.0557004E-25
   5.550000     -1.0187366E-25
   5.560000     -9.7466963E-26
   5.570000     -9.2311794E-26
   5.580000     -8.6370039E-26
   5.590000     -7.9603843E-26
   5.600000     -7.1975724E-26
   5.610000     -6.3448724E-26
   5.620000     -5.3986657E-26
   5.630000     -4.3554360E-26
   5.640000     -3.2117818E-26
   5.650000     -1.9644401E-26
   5.660000     -6.1030694E-27
   5.670000      8.5352878E-27
   5.680000      2.4297692E-26
   5.690000      4.1208722E-26
   5.700000      5.9290348E-26
   5.710000      7.8561530E-26
   5.720000      9.9037974E-26
   5.730000      1.2073187E-25
   5.740000      1.4365158E-25
   5.750000      1.6780127E-25
   5.760000      1.9318049E-25
   5.770000      2.1978399E-25
   5.780000      2.4760135E-25
   5.790000      2.7661652E-25
   5.800000      3.0680763E-25
   5.810000      3.3814643E-25
   5.820000      3.7059813E-25
   5.830000      4.0412082E-25
   5.840000      4.3866538E-25
   5.850000      4.7417492E-25
   5.860000      5.1058440E-25
   5.870000      5.4782036E-25
   5.880000      5.8580066E-25
   5.890000      6.2443389E-25
   5.900000      6.6361938E-25
   5.910000      7.0324667E-25
   5.920000      7.4319523E-25
   5.930000      7.8333424E-25
   5.940000      8.2352242E-25
   5.950000      8.6360784E-25
   5.960000      9.0342747E-25
   5.970000      9.4280731E-25
   5.980000      9.8156217E-25
   5.990000      1.0194954E-24
   6.000000      1.0563992E-24
   6.010000      1.0920542E-24
   6.020000      1.1262295E-24
   6.030000      1.1586832E-24
   6.040000      1.1891621E-24
   6.050000      1.2174018E-24
   6.060000      1.2431270E-24
   6.070000      1.2660523E-24
   6.080000      1.2858819E-24
   6.090000      1.3023099E-24
   6.100000      1.3150210E-24
   6.110000      1.3236915E-24
   6.120000      1.3279893E-24
   6.130000      1.3275740E-24
   6.140000      1.3220992E-24
   6.150000      1.3112122E-24
   6.160000      1.2945551E-24
   6.170000      1.2717660E-24
   6.180000      1.2424796E-24
   6.190000      1.2063294E-24
   6.200000      1.1629475E-24
   6.210000      1.1119673E-24
   6.220000      1.0530240E-24
   6.230000      9.8575714E-25
   6.240000      9.0981143E-25
   6.250000      8.2483809E-25
   6.260000      7.3049752E-25
   6.270000      6.2646205E-25
   6.280000      5.1241619E-25
   6.290000      3.8805880E-25
   6.300000      2.5310691E-25
   6.310000      1.0729682E-25
   6.320000     -4.9613431E-26
   6.330000     -2.1784162E-25
   6.340000     -3.9757833E-25
   6.350000     -5.8898485E-25
   6.360000     -7.9219103E-25
   6.370000     -1.0072918E-24
   6.380000     -1.2343445E-24
   6.390000     -1.4733668E-24
   6.400000     -1.7243322E-24
   6.410000     -1.9871680E-24
   6.420000     -2.2617543E-24
   6.430000     -2.5479188E-24
   6.440000     -2.8454337E-24
   6.450000     -3.1540144E-24
   6.460000     -3.4733155E-24
   6.470000     -3.8029288E-24
   6.480000     -4.1423780E-24
   6.490000     -4.4911196E-24
   6.500000     -4.8485379E-24
   6.510000     -5.2139418E-24
   6.520000     -5.5865646E-24
   6.530000     -5.9655594E-24
   6.540000     -6.3499986E-24
   6.550000     -6.7388687E-24
   6.560000     -7.1310714E-24
   6.570000     -7.5254214E-24
   6.580000     -7.9206431E-24
   6.590000     -8.3153718E-24
   6.600000     -8.7081480E-24
   6.610000     -9.0974216E-24
   6.620000     -9.4815504E-24
   6.630000     -9.8587963E-24
   6.640000     -1.0227328E-23
   6.650000     -1.0585224E-23
   6.660000     -1.0930466E-23
   6.670000     -1.1260948E-23
   6.680000     -1.1574472E-23
   6.690000     -1.1868755E-23
   6.700000     -1.2141427E-23
   6.710000     -1.2390035E-23
   6.720000     -1.2612048E-23
   6.730000     -1.2804860E-23
   6.740000     -1.2965795E-23
   6.750000     -1.3092110E-23
   6.760000     -1.3181001E-23
   6.770000     -1.3229612E-23
   6.780000     -1.3235037E-23
   6.790000     -1.3194333E-23
   6.800000     -1.3104523E-23
   6.810000     -1.2962607E-23
   6.820000     -1.2765566E-23
   6.830000     -1.2510377E-23
   6.840000     -1.2194026E-23
   6.850000     -1.1813515E-23
   6.860000     -1.1365868E-23
   6.870000     -1.0848148E-23
   6.880000     -1.0257477E-23
   6.890000     -9.5910458E-24
   6.900000     -8.8461205E-24
   6.910000     -8.0200593E-24
   6.920000     -7.1103433E-24
   6.930000     -6.1145697E-24
   6.940000     -5.0304784E-24
   6.950000     -3.8559770E-24
   6.960000     -2.5891541E-24
   6.970000     -1.2282895E-24
   6.980000      2.2812331E-25
   6.990000      1.7813536E-24
   7.000000      3.4324182E-24
   7.010000      5.1820581E-24
   7.020000      7.0307157E-24
   7.030000      8.9785316E-24
   7.040000      1.1025316E-23
   7.050000      1.3170518E-23
   7.060000      1.5413212E-23