  -2.600000      0.0000000E+00
  -2.590000      0.0000000E+00
  -2.580000      0.0000000E+00
  -2.570000      0.0000000E+00
  -2.560000      0.0000000E+00
  -2.550000      0.0000000E+00
  -2.540000      0.0000000E+00
  -2.530000      0.0000000E+00
  -2.520000      0.0000000E+00
  -2.510000      0.0000000E+00
  -2.500000      0.0000000E+00
  -2.490000      0.0000000E+00
  -2.480000      0.0000000E+00
  -2.470000      0.0000000E+00
  -2.460000      0.0000000E+00
  -2.450000      0.0000000E+00
  -2.440000      0.0000000E+00
  -2.430000      0.0000000E+00
  -2.420000      0.0000000E+00
  -2.410000      0.0000000E+00
  -2.400000      0.0000000E+00
  -2.390000      0.0000000E+00
  -2.380000      0.0000000E+00
  -2.370000      0.0000000E+00
  -2.360000      0.0000000E+00
  -2.350000      0.0000000E+00
  -2.340000      0.0000000E+00
  -2.330000      0.0000000E+00
  -2.320000      0.0000000E+00
  -2.310000      0.0000000E+00
  -2.300000      0.0000000E+00
  -2.290000      0.0000000E+00
  -2.280000      0.0000000E+00
  -2.270000      0.0000000E+00
  -2.260000      0.0000000E+00
  -2.250000      0.0000000E+00
  -2.240000      0.0000000E+00
  -2.230000      0.0000000E+00
  -2.220000      0.0000000E+00
  -2.210000      0.0000000E+00
  -2.200000      0.0000000E+00
  -2.190000      0.0000000E+00
  -2.180000      0.0000000E+00
  -2.170000      0.0000000E+00
  -2.160000      0.0000000E+00
  -2.150000      0.0000000E+00
  -2.140000      0.0000000E+00
  -2.130000      0.0000000E+00
  -2.120000      0.0000000E+00
  -2.110000      0.0000000E+00
  -2.100000      0.0000000E+00
  -2.090000      0.0000000E+00
  -2.080000      0.0000000E+00
  -2.070000      0.0000000E+00
  -2.060000      0.0000000E+00
  -2.050000      0.0000000E+00
  -2.040000      0.0000000E+00
  -2.030000      0.0000000E+00
  -2.020000      0.0000000E+00
  -2.010000      0.0000000E+00
  -2.000000      0.0000000E+00
  -1.990000      0.0000000E+00
  -1.980000      0.0000000E+00
  -1.970000      0.0000000E+00
  -1.960000      0.0000000E+00
  -1.950000      0.0000000E+00
  -1.940000      0.0000000E+00
  -1.930000      0.0000000E+00
  -1.920000      0.0000000E+00
  -1.910000      0.0000000E+00
  -1.900000      0.0000000E+00
  -1.890000      0.0000000E+00
  -1.880000      0.0000000E+00
  -1.870000      0.0000000E+00
  -1.860000      0.0000000E+00
  -1.850000      0.0000000E+00
  -1.840000      0.0000000E+00
  -1.830000      0.0000000E+00
  -1.820000      0.0000000E+00
  -1.810000      0.0000000E+00
  -1.800000      0.0000000E+00
  -1.790000      0.0000000E+00
  -1.780000      0.0000000E+00
  -1.770000      0.0000000E+00
  -1.760000      0.0000000E+00
  -1.750000      0.0000000E+00
  -1.740000      0.0000000E+00
  -1.730000      0.0000000E+00
  -1.720000      0.0000000E+00
  -1.710000      0.0000000E+00
  -1.700000      0.0000000E+00
  -1.690000      0.0000000E+00
  -1.680000      0.0000000E+00
  -1.670000      0.0000000E+00
  -1.660000      0.0000000E+00
  -1.650000      0.0000000E+00
  -1.640000      0.0000000E+00
  -1.630000      0.0000000E+00
  -1.620000      0.0000000E+00
  -1.610000      0.0000000E+00
  -1.600000      0.0000000E+00
  -1.590000      0.0000000E+00
  -1.580000      0.0000000E+00
  -1.570000      0.0000000E+00
  -1.560000      0.0000000E+00
  -1.550000      0.0000000E+00
  -1.540000      0.0000000E+00
  -1.530000      0.0000000E+00
  -1.520000      0.0000000E+00
  -1.510000      0.0000000E+00
  -1.500000      0.0000000E+00
  -1.490000      0.0000000E+00
  -1.480000      0.0000000E+00
  -1.470000      0.0000000E+00
  -1.460000      0.0000000E+00
  -1.450000      0.0000000E+00
  -1.440000      0.0000000E+00
  -1.430000      0.0000000E+00
  -1.420000      0.0000000E+00
  -1.410000      0.0000000E+00
  -1.400000      0.0000000E+00
  -1.390000      0.0000000E+00
  -1.380000      0.0000000E+00
  -1.370000      0.0000000E+00
  -1.360000      0.0000000E+00
  -1.350000      0.0000000E+00
  -1.340000      0.0000000E+00
  -1.330000      0.0000000E+00
  -1.320000      0.0000000E+00
  -1.310000      0.0000000E+00
  -1.300000      0.0000000E+00
  -1.290000      0.0000000E+00
  -1.280000      0.0000000E+00
  -1.270000      0.0000000E+00
  -1.260000      0.0000000E+00
  -1.250000      0.0000000E+00
  -1.240000      0.0000000E+00
  -1.230000      0.0000000E+00
  -1.220000      0.0000000E+00
  -1.210000      0.0000000E+00
  -1.200000      0.0000000E+00
  -1.190000     -2.7253702E-38
  -1.180000     -5.0697964E-38
  -1.170000     -7.9843974E-38
  -1.160000     -1.1744147E-37
  -1.150000     -1.6402556E-37
  -1.140000     -2.0647850E-37
  -1.130000     -2.2885767E-37
  -1.120000     -2.1141708E-37
  -1.110000     -1.4502237E-37
  -1.100000     -3.3125367E-38
  -1.090000      1.2975770E-37
  -1.080000      3.4601613E-37
  -1.070000      6.0074060E-37
  -1.060000      8.9844639E-37
  -1.050000      1.2353421E-36
  -1.040000      1.5811303E-36
  -1.030000      1.9052725E-36
  -1.020000      2.1573049E-36
  -1.010000      2.2832258E-36
  -1.000000      2.2264696E-36
 -0.9900000      1.9150824E-36
 -0.9800000      1.2996242E-36
 -0.9700000      2.9616358E-37
 -0.9600000     -1.2079773E-36
 -0.9500000     -3.2365803E-36
 -0.9400000     -5.7877643E-36
 -0.9300000     -8.8031476E-36
 -0.9200000     -1.2102749E-35
 -0.9100000     -1.5443308E-35
 -0.9000000     -1.8607410E-35
 -0.8900000     -2.1194792E-35
 -0.8800000     -2.2579085E-35
 -0.8700000     -2.2372789E-35
 -0.8600000     -1.9935068E-35
 -0.8500000     -1.5089383E-35
 -0.8400000     -8.2154184E-36
 -0.8300000      1.3811130E-36
 -0.8200000      1.4391403E-35
 -0.8100000      3.0890221E-35
 -0.8000000      5.0634247E-35
 -0.7900000      7.3116202E-35
 -0.7800000      9.7587911E-35
 -0.7700000      1.2331722E-34
 -0.7600000      1.4775412E-34
 -0.7500000      1.6841681E-34
 -0.7400000      1.8352460E-34
 -0.7300000      1.8956225E-34
 -0.7200000      1.8304942E-34
 -0.7100000      1.6019566E-34
 -0.7000000      1.1726035E-34
 -0.6900000      5.0772987E-35
 -0.6800000     -4.1565325E-35
 -0.6700000     -1.5958749E-34
 -0.6600000     -3.0200011E-34
 -0.6500000     -4.6637031E-34
 -0.6400000     -6.4755045E-34
 -0.6300000     -8.3813886E-34
 -0.6200000     -1.0266572E-33
 -0.6100000     -1.1990081E-33
 -0.6000000     -1.3385277E-33
 -0.5900000     -1.4255065E-33
 -0.5800000     -1.4386646E-33
 -0.5700000     -1.3589925E-33
 -0.5600000     -1.1624258E-33
 -0.5500000     -8.2463289E-34
 -0.5400000     -3.2868227E-34
 -0.5300000      3.4004007E-34
 -0.5200000      1.1831856E-33
 -0.5100000      2.1906246E-33
 -0.5000000      3.3413945E-33
 -0.4900000      4.6013933E-33
 -0.4800000      5.9176369E-33
 -0.4700000      7.2164230E-33
 -0.4600000      8.4033343E-33
 -0.4500000      9.3697391E-33
 -0.4400000      9.9941154E-33
 -0.4300000      1.0141380E-32
 -0.4200000      9.6702675E-33
 -0.4100000      8.4435950E-33
 -0.4000000      6.3405019E-33
 -0.3900000      3.2587312E-33
 -0.3800000     -8.6776269E-34
 -0.3700000     -6.0534701E-33
 -0.3600000     -1.2252853E-32
 -0.3500000     -1.9343697E-32
 -0.3400000     -2.7116415E-32
 -0.3300000     -3.5267825E-32
 -0.3200000     -4.3394576E-32
 -0.3100000     -5.0991628E-32
 -0.3000000     -5.7460891E-32
 -0.2900000     -6.2123630E-32
 -0.2800000     -6.4241348E-32
 -0.2700000     -6.3045518E-32
 -0.2600000     -5.7774431E-32
 -0.2500000     -4.7722088E-32
 -0.2400000     -3.2287879E-32
 -0.2300000     -1.1039305E-32
 -0.2200000      1.6223518E-32
 -0.2100000      4.9407115E-32
 -0.2000000      8.8061248E-32
 -0.1900000      1.3132432E-31
 -0.1800000      1.7787967E-31
 -0.1700000      2.2592661E-31
 -0.1600000      2.7317301E-31
 -0.1500000      3.1685368E-31
 -0.1400000      3.5377638E-31
 -0.1300000      3.8040170E-31
 -0.1200000      3.9295869E-31
 -0.1100000      3.8759526E-31
 -0.1000000      3.6056408E-31
 -9.0000004E-02  3.0844031E-31
 -7.9999998E-02  2.2836625E-31
 -7.0000000E-02  1.1831543E-31
 -5.9999999E-02 -2.2634589E-32
 -5.0000001E-02 -1.9403169E-31
 -3.9999999E-02 -3.9379604E-31
 -2.9999999E-02 -6.1800031E-31
 -2.0000000E-02 -8.6070007E-31
 -9.9999998E-03 -1.1138321E-30
 -3.4694470E-17 -1.3671978E-30
  9.9999998E-03 -1.6085493E-30
  2.0000000E-02 -1.8237908E-30
  2.9999999E-02 -1.9973063E-30
  3.9999999E-02 -2.1124252E-30
  5.0000001E-02 -2.1520223E-30
  5.9999999E-02 -2.0992542E-30
  7.0000000E-02 -1.9384235E-30
  7.9999998E-02 -1.6559507E-30
  9.0000004E-02 -1.2414395E-30
  0.1000000     -6.8880264E-31
  0.1100000      2.5808891E-33
  0.1200000      8.2671624E-31
  0.1300000      1.7698901E-30
  0.1400000      2.8096589E-30
  0.1500000      3.9139681E-30
  0.1600000      5.0404419E-30
  0.1700000      6.1358811E-30
  0.1800000      7.1359993E-30
  0.1900000      7.9654130E-30
  0.2000000      8.5379100E-30
  0.2100000      8.7569875E-30
  0.2200000      8.5166556E-30
  0.2300000      7.7024822E-30
  0.2400000      6.1928529E-30
  0.2500000      3.8604006E-30
  0.2600000      5.7355849E-31
  0.2700000     -3.8018207E-30
  0.2800000     -9.4008350E-30
  0.2900000     -1.6357946E-29
  0.3000000     -2.4805481E-29
  0.3100000     -3.4872281E-29
  0.3200000     -4.6682520E-29
  0.3300000     -6.0354696E-29
  0.3400000     -7.6000825E-29
  0.3500000     -9.3725778E-29
  0.3600000     -1.1362679E-28
  0.3700000     -1.3579296E-28
  0.3800000     -1.6030494E-28
  0.3900000     -1.8723430E-28
  0.4000000     -2.1664295E-28
  0.4100000     -2.4858231E-28
  0.4200000     -2.8309203E-28
  0.4300000     -3.2019854E-28
  0.4400000     -3.5991305E-28
  0.4500000     -4.0222931E-28
  0.4600000     -4.4712077E-28
  0.4700000     -4.9453774E-28
  0.4800000     -5.4440416E-28
  0.4900000     -5.9661439E-28
  0.5000000     -6.5103043E-28
  0.5100000     -7.0747944E-28
  0.5200000     -7.6575191E-28
  0.5300000     -8.2560081E-28
  0.5400000     -8.8674235E-28
  0.5500000     -9.4885859E-28
  0.5600000     -1.0116009E-27
  0.5700000     -1.0745961E-27
  0.5800000     -1.1374555E-27
  0.5900000     -1.1997843E-27
  0.6000000     -1.2611951E-27
  0.6100000     -1.3213225E-27
  0.6200000     -1.3798385E-27
  0.6300000     -1.4364711E-27
  0.6400000     -1.4910222E-27
  0.6500000     -1.5433856E-27
  0.6600000     -1.5935651E-27
  0.6700000     -1.6416910E-27
  0.6800000     -1.6880343E-27
  0.6900000     -1.7330172E-27
  0.7000000     -1.7772233E-27
  0.7100000     -1.8213991E-27
  0.7200000     -1.8664540E-27
  0.7300000     -1.9134536E-27
  0.7400000     -1.9636108E-27
  0.7500000     -2.0182696E-27
  0.7600000     -2.0788846E-27
  0.7700000     -2.1469990E-27
  0.7800000     -2.2242182E-27
  0.7900000     -2.3121804E-27
  0.8000000     -2.4125304E-27
  0.8100000     -2.5268925E-27
  0.8200000     -2.6568456E-27
  0.8300000     -2.8039021E-27
  0.8400000     -2.9694905E-27
  0.8500000     -3.1549483E-27
  0.8600000     -3.3615181E-27
  0.8700000     -3.5903502E-27
  0.8800000     -3.8425160E-27
  0.8900000     -4.1190272E-27
  0.9000000     -4.4208589E-27
  0.9100000     -4.7489789E-27
  0.9200000     -5.1043819E-27
  0.9300000     -5.4881227E-27
  0.9400000     -5.9013475E-27
  0.9500000     -6.3453260E-27
  0.9600000     -6.8214705E-27
  0.9700000     -7.3313582E-27
  0.9800000     -7.8767238E-27
  0.9900000     -8.4594570E-27
   1.000000     -9.0815855E-27
   1.010000     -9.7452379E-27
   1.020000     -1.0452594E-26
   1.030000     -1.1205825E-26
   1.040000     -1.2007023E-26
   1.050000     -1.2858128E-26
   1.060000     -1.3760843E-26
   1.070000     -1.4716558E-26
   1.080000     -1.5726269E-26
   1.090000     -1.6790516E-26
   1.100000     -1.7909330E-26
   1.110000     -1.9082205E-26
   1.120000     -2.0308076E-26
   1.130000     -2.1585347E-26
   1.140000     -2.2911921E-26
   1.150000     -2.4285271E-26
   1.160000     -2.5702527E-26
   1.170000     -2.7160595E-26
   1.180000     -2.8656294E-26
   1.190000     -3.0186505E-26
   1.200000     -3.1748333E-26
   1.210000     -3.3339246E-26
   1.220000     -3.4957219E-26
   1.230000     -3.6600872E-26
   1.240000     -3.8269559E-26
   1.250000     -3.9963447E-26
   1.260000     -4.1683537E-26
   1.270000     -4.3431640E-26
   1.280000     -4.5210327E-26
   1.290000     -4.7022812E-26
   1.300000     -4.8872783E-26
   1.310000     -5.0764259E-26
   1.320000     -5.2701326E-26
   1.330000     -5.4687887E-26
   1.340000     -5.6727468E-26
   1.350000     -5.8822880E-26
   1.360000     -6.0976082E-26
   1.370000     -6.3187968E-26
   1.380000     -6.5458217E-26
   1.390000     -6.7785178E-26
   1.400000     -7.0165923E-26
   1.410000     -7.2596268E-26
   1.420000     -7.5070888E-26
   1.430000     -7.7583607E-26
   1.440000     -8.0127597E-26
   1.450000     -8.2695783E-26
   1.460000     -8.5281170E-26
   1.470000     -8.7877250E-26
   1.480000     -9.0478457E-26
   1.490000     -9.3080539E-26
   1.500000     -9.5680859E-26
   1.510000     -9.8278646E-26
   1.520000     -1.0087518E-25
   1.530000     -1.0347386E-25
   1.540000     -1.0608015E-25
   1.550000     -1.0870126E-25
   1.560000     -1.1134594E-25
   1.570000     -1.1402394E-25
   1.580000     -1.1674545E-25
   1.590000     -1.1952041E-25
   1.600000     -1.2235776E-25
   1.610000     -1.2526473E-25
   1.620000     -1.2824605E-25
   1.630000     -1.3130330E-25
   1.640000     -1.3443431E-25
   1.650000     -1.3763273E-25
   1.660000     -1.4088760E-25
   1.670000     -1.4418340E-25
   1.680000     -1.4750023E-25
   1.690000     -1.5081407E-25
   1.700000     -1.5409742E-25
   1.710000     -1.5732011E-25
   1.720000     -1.6045029E-25
   1.730000     -1.6345560E-25
   1.740000     -1.6630444E-25
   1.750000     -1.6896710E-25
   1.760000     -1.7141711E-25
   1.770000     -1.7363225E-25
   1.780000     -1.7559561E-25
   1.790000     -1.7729629E-25
   1.800000     -1.7872980E-25
   1.810000     -1.7989809E-25
   1.820000     -1.8080918E-25
   1.830000     -1.8147659E-25
   1.840000     -1.8191861E-25
   1.850000     -1.8215667E-25
   1.860000     -1.8221362E-25
   1.870000     -1.8211209E-25
   1.880000     -1.8187246E-25
   1.890000     -1.8151099E-25
   1.900000     -1.8103794E-25
   1.910000     -1.8045581E-25
   1.920000     -1.7975778E-25
   1.930000     -1.7892713E-25
   1.940000     -1.7793662E-25
   1.950000     -1.7674832E-25
   1.960000     -1.7531438E-25
   1.970000     -1.7357824E-25
   1.980000     -1.7147614E-25
   1.990000     -1.6893978E-25
   2.000000     -1.6589858E-25
   2.010000     -1.6228257E-25
   2.020000     -1.5802560E-25
   2.030000     -1.5306835E-25
   2.040000     -1.4736082E-25
   2.050000     -1.4086487E-25
   2.060000     -1.3355606E-25
   2.070000     -1.2542495E-25
   2.080000     -1.1647781E-25
   2.090000     -1.0673568E-25
   2.100000     -9.6233314E-26
   2.110000     -8.5017111E-26
   2.120000     -7.3142117E-26
   2.130000     -6.0668568E-26
   2.140000     -4.7657475E-26
   2.150000     -3.4166296E-26
   2.160000     -2.0244682E-26
   2.170000     -5.9296822E-27
   2.180000      8.7580016E-27
   2.190000      2.3817011E-26
   2.200000      3.9267992E-26
   2.210000      5.5154486E-26
   2.220000      7.1543016E-26
   2.230000      8.8521515E-26
   2.240000      1.0619649E-25
   2.250000      1.2468919E-25
   2.260000      1.4412995E-25
   2.270000      1.6465190E-25
   2.280000      1.8638415E-25
   2.290000      2.0944415E-25
   2.300000      2.3393022E-25
   2.310000      2.5991468E-25
   2.320000      2.8743735E-25
   2.330000      3.1650054E-25
   2.340000      3.4706527E-25
   2.350000      3.7904949E-25
   2.360000      4.1232764E-25
   2.370000      4.4673282E-25
   2.380000      4.8206116E-25
   2.390000      5.1807720E-25
   2.400000      5.5452179E-25
   2.410000      5.9112123E-25
   2.420000      6.2759639E-25
   2.430000      6.6367341E-25
   2.440000      6.9909346E-25
   2.450000      7.3362230E-25
   2.460000      7.6705827E-25
   2.470000      7.9923812E-25
   2.480000      8.3004132E-25
   2.490000      8.5939109E-25
   2.500000      8.8725316E-25
   2.510000      9.1363119E-25
   2.520000      9.3855969E-25
   2.530000      9.6209456E-25
   2.540000      9.8430060E-25
   2.550000      1.0052386E-24
   2.560000      1.0249513E-24
   2.570000      1.0434487E-24
   2.580000      1.0606950E-24
   2.590000      1.0765960E-24
   2.600000      1.0909909E-24
   2.610000      1.1036443E-24
   2.620000      1.1142450E-24
   2.630000      1.1224064E-24
   2.640000      1.1276734E-24
   2.650000      1.1295332E-24
   2.660000      1.1274297E-24
   2.670000      1.1207811E-24
   2.680000      1.1090032E-24
   2.690000      1.0915321E-24
   2.700000      1.0678489E-24
   2.710000      1.0375050E-24
   2.720000      1.0001459E-24
   2.730000      9.5553262E-25
   2.740000      9.0355941E-25
   2.750000      8.4426635E-25
   2.760000      7.7784762E-25
   2.770000      7.0465395E-25
   2.780000      6.2518795E-25
   2.790000      5.4009441E-25
   2.800000      4.5014469E-25
   2.810000      3.5621581E-25
   2.820000      2.5926715E-25
   2.830000      1.6031284E-25
   2.840000      6.0394649E-26
   2.850000     -3.9444608E-26
   2.860000     -1.3818617E-25
   2.870000     -2.3485565E-25
   2.880000     -3.2853811E-25
   2.890000     -4.1838688E-25
   2.900000     -5.0362345E-25
   2.910000     -5.8353121E-25
   2.920000     -6.5743988E-25
   2.930000     -7.2470221E-25
   2.940000     -7.8466372E-25
   2.950000     -8.3662673E-25
   2.960000     -8.7981026E-25
   2.970000     -9.1330924E-25
   2.980000     -9.3605200E-25
   2.990000     -9.4676157E-25
   3.000000     -9.4392246E-25
   3.010000     -9.2575352E-25
   3.020000     -8.9019127E-25
   3.030000     -8.3488344E-25
   3.040000     -7.5719396E-25
   3.050000     -6.5422256E-25
   3.060000     -5.2283541E-25
   3.070000     -3.5970886E-25
   3.080000     -1.6138260E-25
   3.090000      7.5676937E-26
   3.100000      3.5500844E-25
   3.110000      6.8008236E-25
   3.120000      1.0542280E-24
   3.130000      1.4805623E-24
   3.140000      1.9619251E-24
   3.150000      2.5008230E-24
   3.160000      3.0993844E-24
   3.170000      3.7593269E-24
   3.180000      4.4819373E-24
   3.190000      5.2680695E-24
   3.200000      6.1181551E-24
   3.210000      7.0322248E-24
   3.220000      8.0099445E-24
   3.230000      9.0506556E-24
   3.240000      1.0153421E-23
   3.250000      1.1317073E-23
   3.260000      1.2540254E-23
   3.270000      1.3821458E-23
   3.280000      1.5159046E-23
   3.290000      1.6551255E-23
   3.300000      1.7996199E-23
   3.310000      1.9491822E-23
   3.320000      2.1035860E-23
   3.330000      2.2625758E-23
   3.340000      2.4258580E-23
   3.350000      2.5930898E-23
   3.360000      2.7638663E-23
   3.370000      2.9377070E-23
   3.380000      3.1140417E-23
   3.390000      3.2921961E-23
   3.400000      3.4713783E-23
   3.410000      3.6506668E-23
   3.420000      3.8289996E-23
   3.430000      4.0051651E-23
   3.440000      4.1777979E-23
   3.450000      4.3453740E-23
   3.460000      4.5062133E-23
   3.470000      4.6584799E-23
   3.480000      4.8001889E-23
   3.490000      4.9292154E-23
   3.500000      5.0433042E-23
   3.510000      5.1400823E-23
   3.520000      5.2170704E-23
   3.530000      5.2716968E-23
   3.540000      5.3013106E-23
   3.550000      5.3031913E-23
   3.560000      5.2745607E-23
   3.570000      5.2125881E-23
   3.580000      5.1143963E-23
   3.590000      4.9770648E-23
   3.600000      4.7976258E-23
   3.610000      4.5730642E-23
   3.620000      4.3003102E-23
   3.630000      3.9762316E-23
   3.640000      3.5976270E-23
   3.650000      3.1612162E-23
   3.660000      2.6636327E-23
   3.670000      2.1014180E-23
   3.680000      1.4710187E-23
   3.690000      7.6878550E-24
   3.700000     -9.0210990E-26
   3.710000     -8.6622008E-24
   3.720000     -1.8066950E-23
   3.730000     -2.8343728E-23
   3.740000     -3.9531956E-23
   3.750000     -5.1670885E-23
   3.760000     -6.4799193E-23
   3.770000     -7.8954570E-23
   3.780000     -9.4173249E-23
   3.790000     -1.1048955E-22
   3.800000     -1.2793527E-22
   3.810000     -1.4653927E-22
   3.820000     -1.6632694E-22
   3.830000     -1.8731967E-22
   3.840000     -2.0953443E-22
   3.850000     -2.3298329E-22
   3.860000     -2.5767305E-22
   3.870000     -2.8360489E-22
   3.880000     -3.1077404E-22
   3.890000     -3.3916947E-22
   3.900000     -3.6877364E-22
   3.910000     -3.9956221E-22
   3.920000     -4.3150389E-22
   3.930000     -4.6456011E-22
   3.940000     -4.9868474E-22
   3.950000     -5.3382371E-22
   3.960000     -5.6991492E-22
   3.970000     -6.0688753E-22
   3.980000     -6.4466152E-22
   3.990000     -6.8314728E-22
   4.000000     -7.2224480E-22
   4.010000     -7.6184309E-22
   4.020000     -8.0181933E-22
   4.030000     -8.4203796E-22
   4.040000     -8.8234978E-22
   4.050000     -9.2259133E-22
   4.060000     -9.6258358E-22
   4.070000     -1.0021310E-21
   4.080000     -1.0410208E-21
   4.090000     -1.0790223E-21
   4.100000     -1.1158853E-21
   4.110000     -1.1513405E-21
   4.120000     -1.1850979E-21
   4.130000     -1.2168465E-21
   4.140000     -1.2462544E-21
   4.150000     -1.2729681E-21
   4.160000     -1.2966118E-21
   4.170000     -1.3167886E-21
   4.180000     -1.3330798E-21
   4.190000     -1.3450447E-21
   4.200000     -1.3522217E-21
   4.210000     -1.3541278E-21
   4.220000     -1.3502596E-21
   4.230000     -1.3400931E-21
   4.240000     -1.3230849E-21
   4.250000     -1.2986717E-21
   4.260000     -1.2662721E-21
   4.270000     -1.2252854E-21
   4.280000     -1.1750939E-21
   4.290000     -1.1150623E-21
   4.300000     -1.0445389E-21
   4.310000     -9.6285580E-22
   4.320000     -8.6933088E-22
   4.330000     -7.6326788E-22
   4.340000     -6.4395748E-22
   4.350000     -5.1067967E-22
   4.360000     -3.6270423E-22
   4.370000     -1.9929321E-22
   4.380000     -1.9703005E-23
   4.390000      1.7681301E-22
   4.400000      3.9100190E-22
   4.410000      6.2360745E-22
   4.420000      8.7536711E-22
   4.430000      1.1470080E-21
   4.440000      1.4392424E-21
   4.450000      1.7527634E-21
   4.460000      2.0882401E-21
   4.470000      2.4463111E-21
   4.480000      2.8275808E-21
   4.490000      3.2326127E-21
   4.500000      3.6619229E-21
   4.510000      4.1159748E-21
   4.520000      4.5951709E-21
   4.530000      5.0998476E-21
   4.540000      5.6302683E-21
   4.550000      6.1866155E-21
   4.560000      6.7689833E-21
   4.570000      7.3773710E-21
   4.580000      8.0116748E-21
   4.590000      8.6716801E-21
   4.600000      9.3570534E-21
   4.610000      1.0067333E-20
   4.620000      1.0801921E-20
   4.630000      1.1560074E-20
   4.640000      1.2340897E-20
   4.650000      1.3143327E-20
   4.660000      1.3966132E-20
   4.670000      1.4807895E-20
   4.680000      1.5667003E-20
   4.690000      1.6541640E-20
   4.700000      1.7429778E-20
   4.710000      1.8329161E-20
   4.720000      1.9237297E-20
   4.730000      2.0151443E-20
   4.740000      2.1068607E-20
   4.750000      2.1985520E-20
   4.760000      2.2898642E-20
   4.770000      2.3804140E-20
   4.780000      2.4697881E-20
   4.790000      2.5575428E-20
   4.800000      2.6432028E-20
   4.810000      2.7262606E-20
   4.820000      2.8061753E-20
   4.830000      2.8823726E-20
   4.840000      2.9542442E-20
   4.850000      3.0211466E-20
   4.860000      3.0824016E-20
   4.870000      3.1372954E-20
   4.880000      3.1850790E-20
   4.890000      3.2249682E-20
   4.900000      3.2561422E-20
   4.910000      3.2777468E-20
   4.920000      3.2888914E-20
   4.930000      3.2886520E-20
   4.940000      3.2760701E-20
   4.950000      3.2501558E-20
   4.960000      3.2098860E-20
   4.970000      3.1542074E-20
   4.980000      3.0820372E-20
   4.990000      2.9922651E-20
   5.000000      2.8837555E-20
   5.010000      2.7553486E-20
   5.020000      2.6058635E-20
   5.030000      2.4341006E-20
   5.040000      2.2388443E-20
   5.050000      2.0188664E-20
   5.060000      1.7729300E-20
   5.070000      1.4997919E-20
   5.080000      1.1982092E-20
   5.090000      8.6694102E-21
   5.100000      5.0475563E-21
   5.110000      1.1043348E-21
   5.120000     -3.1722595E-21
   5.130000     -7.7939849E-21
   5.140000     -1.2772288E-20
   5.150000     -1.8118249E-20
   5.160000     -2.3842502E-20
   5.170000     -2.9955163E-20
   5.180000     -3.6465753E-20
   5.190000     -4.3383125E-20
   5.200000     -5.0715387E-20
   5.210000     -5.8469804E-20
   5.220000     -6.6652689E-20
   5.230000     -7.5269364E-20
   5.240000     -8.4324019E-20
   5.250000     -9.3819613E-20
   5.260000     -1.0375777E-19
   5.270000     -1.1413870E-19
   5.280000     -1.2496104E-19
   5.290000     -1.3622182E-19
   5.300000     -1.4791626E-19
   5.310000     -1.6003768E-19
   5.320000     -1.7257743E-19
   5.330000     -1.8552471E-19
   5.340000     -1.9886645E-19
   5.350000     -2.1258720E-19
   5.360000     -2.2666902E-19
   5.370000     -2.4109133E-19
   5.380000     -2.5583076E-19
   5.390000     -2.7086107E-19
   5.400000     -2.8615305E-19
   5.410000     -3.0167429E-19
   5.420000     -3.1738918E-19
   5.430000     -3.3325866E-19
   5.440000     -3.4924026E-19
   5.450000     -3.6528782E-19
   5.460000     -3.8135156E-19
   5.470000     -3.9737785E-19
   5.480000     -4.1330912E-19
   5.490000     -4.2908386E-19
   5.500000     -4.4463641E-19
   5.510000     -4.5989707E-19
   5.520000     -4.7479169E-19
   5.530000     -4.8924207E-19
   5.540000     -5.0316554E-19
   5.550000     -5.1647508E-19
   5.560000     -5.2907935E-19
   5.570000     -5.4088239E-19
   5.580000     -5.5178411E-19
   5.590000     -5.6167978E-19
   5.600000     -5.7046040E-19
   5.610000     -5.7801272E-19
   5.620000     -5.8421906E-19
   5.630000     -5.8895782E-19
   5.640000     -5.9210312E-19
   5.650000     -5.9352530E-19
   5.660000     -5.9309083E-19
   5.670000     -5.9066253E-19
   5.680000     -5.8609991E-19
   5.690000     -5.7925923E-19
   5.700000     -5.6999403E-19
   5.710000     -5.5815485E-19
   5.720000     -5.4359022E-19
   5.730000     -5.2614648E-19
   5.740000     -5.0566838E-19
   5.750000     -4.8199954E-19
   5.760000     -4.5498253E-19
   5.770000     -4.2445982E-19
   5.780000     -3.9027395E-19
   5.790000     -3.5226815E-19
   5.800000     -3.1028698E-19
   5.810000     -2.6417680E-19
   5.820000     -2.1378635E-19
   5.830000     -1.5896757E-19
   5.840000     -9.9576267E-20
   5.850000     -3.5472884E-20
   5.860000      3.3476797E-20
   5.870000      1.0740089E-19
   5.880000      1.8642057E-19
   5.890000      2.7064902E-19
   5.900000      3.6019065E-19
   5.910000      4.5514016E-19
   5.920000      5.5558149E-19
   5.930000      6.6158707E-19
   5.940000      7.7321649E-19
   5.950000      8.9051525E-19
   5.960000      1.0135142E-18
   5.970000      1.1422278E-18
   5.980000      1.2766533E-18
   5.990000      1.4167696E-18
   6.000000      1.5625360E-18
   6.010000      1.7138906E-18
   6.020000      1.8707498E-18
   6.030000      2.0330065E-18
   6.040000      2.2005285E-18
   6.050000      2.3731586E-18
   6.060000      2.5507117E-18
   6.070000      2.7329746E-18
   6.080000      2.9197042E-18
   6.090000      3.1106265E-18
   6.100000      3.3054354E-18
   6.110000      3.5037919E-18
   6.120000      3.7053221E-18
   6.130000      3.9096158E-18
   6.140000      4.1162269E-18
   6.150000      4.3246719E-18
   6.160000      4.5344275E-18
   6.170000      4.7449309E-18
   6.180000      4.9555787E-18
   6.190000      5.1657264E-18
   6.200000      5.3746867E-18
   6.210000      5.5817296E-18
   6.220000      5.7860812E-18
   6.230000      5.9869252E-18
   6.240000      6.1833988E-18
   6.250000      6.3745963E-18
   6.260000      6.5595662E-18
   6.270000      6.7373125E-18
   6.280000      6.9067947E-18
   6.290000      7.0669282E-18
   6.300000      7.2165842E-18
   6.310000      7.3545902E-18
   6.320000      7.4797302E-18
   6.330000      7.5907478E-18
   6.340000      7.6863475E-18
   6.350000      7.7651936E-18
   6.360000      7.8259128E-18
   6.370000      7.8670931E-18
   6.380000      7.8872945E-18
   6.390000      7.8850413E-18
   6.400000      7.8588304E-18
   6.410000      7.8071333E-18
   6.420000      7.7283973E-18
   6.430000      7.6210507E-18
   6.440000      7.4835047E-18
   6.450000      7.3141576E-18
   6.460000      7.1114024E-18
   6.470000      6.8736260E-18
   6.480000      6.5992163E-18
   6.490000      6.2865665E-18
   6.500000      5.9340820E-18
   6.510000      5.5401848E-18
   6.520000      5.1033197E-18
   6.530000      4.6219606E-18
   6.540000      4.0946156E-18
   6.550000      3.5198355E-18
   6.560000      2.8962209E-18
   6.570000      2.2224290E-18
   6.580000      1.4971804E-18
   6.590000      7.1926725E-19
   6.600000     -1.1243654E-19
   6.610000     -9.9896803E-19
   6.620000     -1.9412663E-18
   6.630000     -2.9401634E-18
   6.640000     -3.9963751E-18
   6.650000     -5.1104906E-18
   6.660000     -6.2829641E-18
   6.670000     -7.5141062E-18
   6.680000     -8.8040687E-18
   6.690000     -1.0152839E-17
   6.700000     -1.1560225E-17
   6.710000     -1.3025852E-17
   6.720000     -1.4549146E-17
   6.730000     -1.6129322E-17
   6.740000     -1.7765378E-17
   6.750000     -1.9456082E-17
   6.760000     -2.1199959E-17
   6.770000     -2.2995287E-17
   6.780000     -2.4840077E-17
   6.790000     -2.6732070E-17
   6.800000     -2.8668723E-17
   6.810000     -3.0647204E-17
   6.820000     -3.2664376E-17
   6.830000     -3.4716793E-17
   6.840000     -3.6800686E-17
   6.850000     -3.8911962E-17
   6.860000     -4.1046191E-17
   6.870000     -4.3198591E-17
   6.880000     -4.5364031E-17
   6.890000     -4.7537024E-17
   6.900000     -4.9711725E-17
   6.910000     -5.1881913E-17
   6.920000     -5.4040997E-17
   6.930000     -5.6182015E-17
   6.940000     -5.8297612E-17
   6.950000     -6.0380075E-17
   6.960000     -6.2421286E-17
   6.970000     -6.4412766E-17
   6.980000     -6.6345662E-17
   6.990000     -6.8210729E-17
   7.000000     -6.9998373E-17
   7.010000     -7.1698613E-17
   7.020000     -7.3301120E-17
   7.030000     -7.4795226E-17
   7.040000     -7.6169934E-17
   7.050000     -7.7413888E-17
   7.060000     -7.8515448E-17