  -2.600000      0.0000000E+00
  -2.590000      0.0000000E+00
  -2.580000      0.0000000E+00
  -2.570000      0.0000000E+00
  -2.560000      0.0000000E+00
  -2.550000      0.0000000E+00
  -2.540000      0.0000000E+00
  -2.530000      0.0000000E+00
  -2.520000      0.0000000E+00
  -2.510000      0.0000000E+00
  -2.500000      0.0000000E+00
  -2.490000      0.0000000E+00
  -2.480000      0.0000000E+00
  -2.470000      0.0000000E+00
  -2.460000      0.0000000E+00
  -2.450000      0.0000000E+00
  -2.440000      0.0000000E+00
  -2.430000      0.0000000E+00
  -2.420000      0.0000000E+00
  -2.410000      0.0000000E+00
  -2.400000      0.0000000E+00
  -2.390000      0.0000000E+00
  -2.380000      0.0000000E+00
  -2.370000      0.0000000E+00
  -2.360000      0.0000000E+00
  -2.350000      0.0000000E+00
  -2.340000      0.0000000E+00
  -2.330000      0.0000000E+00
  -2.320000      0.0000000E+00
  -2.310000      0.0000000E+00
  -2.300000      0.0000000E+00
  -2.290000      0.0000000E+00
  -2.280000      0.0000000E+00
  -2.270000      0.0000000E+00
  -2.260000      0.0000000E+00
  -2.250000      0.0000000E+00
  -2.240000      0.0000000E+00
  -2.230000      0.0000000E+00
  -2.220000      0.0000000E+00
  -2.210000      0.0000000E+00
  -2.200000      0.0000000E+00
  -2.190000      0.0000000E+00
  -2.180000      0.0000000E+00
  -2.170000      0.0000000E+00
  -2.160000      0.0000000E+00
  -2.150000      0.0000000E+00
  -2.140000      0.0000000E+00
  -2.130000      0.0000000E+00
  -2.120000      0.0000000E+00
  -2.110000      0.0000000E+00
  -2.100000      0.0000000E+00
  -2.090000      0.0000000E+00
  -2.080000      0.0000000E+00
  -2.070000      0.0000000E+00
  -2.060000      0.0000000E+00
  -2.050000      0.0000000E+00
  -2.040000      0.0000000E+00
  -2.030000      0.0000000E+00
  -2.020000      0.0000000E+00
  -2.010000      0.0000000E+00
  -2.000000      0.0000000E+00
  -1.990000      0.0000000E+00
  -1.980000      0.0000000E+00
  -1.970000      0.0000000E+00
  -1.960000      0.0000000E+00
  -1.950000      0.0000000E+00
  -1.940000      0.0000000E+00
  -1.930000      0.0000000E+00
  -1.920000      0.0000000E+00
  -1.910000      0.0000000E+00
  -1.900000      0.0000000E+00
  -1.890000      0.0000000E+00
  -1.880000      0.0000000E+00
  -1.870000      0.0000000E+00
  -1.860000      0.0000000E+00
  -1.850000      0.0000000E+00
  -1.840000      0.0000000E+00
  -1.830000      0.0000000E+00
  -1.820000      0.0000000E+00
  -1.810000      0.0000000E+00
  -1.800000      0.0000000E+00
  -1.790000      0.0000000E+00
  -1.780000      0.0000000E+00
  -1.770000      0.0000000E+00
  -1.760000      0.0000000E+00
  -1.750000      0.0000000E+00
  -1.740000      0.0000000E+00
  -1.730000      0.0000000E+00
  -1.720000      0.0000000E+00
  -1.710000      0.0000000E+00
  -1.700000      0.0000000E+00
  -1.690000      0.0000000E+00
  -1.680000      0.0000000E+00
  -1.670000      0.0000000E+00
  -1.660000      0.0000000E+00
  -1.650000      0.0000000E+00
  -1.640000      0.0000000E+00
  -1.630000      0.0000000E+00
  -1.620000      0.0000000E+00
  -1.610000      0.0000000E+00
  -1.600000      0.0000000E+00
  -1.590000      0.0000000E+00
  -1.580000      0.0000000E+00
  -1.570000      0.0000000E+00
  -1.560000      0.0000000E+00
  -1.550000      0.0000000E+00
  -1.540000      0.0000000E+00
  -1.530000      0.0000000E+00
  -1.520000      0.0000000E+00
  -1.510000      0.0000000E+00
  -1.500000      0.0000000E+00
  -1.490000      0.0000000E+00
  -1.480000      0.0000000E+00
  -1.470000      0.0000000E+00
  -1.460000      0.0000000E+00
  -1.450000      0.0000000E+00
  -1.440000      0.0000000E+00
  -1.430000      0.0000000E+00
  -1.420000      0.0000000E+00
  -1.410000      0.0000000E+00
  -1.400000      0.0000000E+00
  -1.390000      0.0000000E+00
  -1.380000      0.0000000E+00
  -1.370000      0.0000000E+00
  -1.360000      0.0000000E+00
  -1.350000      0.0000000E+00
  -1.340000      0.0000000E+00
  -1.330000      0.0000000E+00
  -1.320000      0.0000000E+00
  -1.310000      0.0000000E+00
  -1.300000      0.0000000E+00
  -1.290000      0.0000000E+00
  -1.280000      0.0000000E+00
  -1.270000      0.0000000E+00
  -1.260000      0.0000000E+00
  -1.250000      0.0000000E+00
  -1.240000      0.0000000E+00
  -1.230000      0.0000000E+00
  -1.220000      0.0000000E+00
  -1.210000      0.0000000E+00
  -1.200000      0.0000000E+00
  -1.190000      2.4435593E-38
  -1.180000      4.8434861E-38
  -1.170000      7.8936292E-38
  -1.160000      1.1858514E-37
  -1.150000      1.6751348E-37
  -1.140000      2.1356049E-37
  -1.130000      2.3977432E-37
  -1.120000      2.2584124E-37
  -1.110000      1.6045038E-37
  -1.100000      4.7248466E-38
  -1.090000     -1.1920770E-37
  -1.080000     -3.4335527E-37
  -1.070000     -6.0557878E-37
  -1.060000     -9.1545066E-37
  -1.050000     -1.2786929E-36
  -1.040000     -1.6475162E-36
  -1.030000     -1.9793579E-36
  -1.020000     -2.2493835E-36
  -1.010000     -2.4057670E-36
  -1.000000     -2.3847153E-36
 -0.9900000     -2.1092253E-36
 -0.9800000     -1.4995242E-36
 -0.9700000     -4.9616755E-37
 -0.9600000      1.0263175E-36
 -0.9500000      3.1230106E-36
 -0.9400000      5.8045332E-36
 -0.9300000      8.9883274E-36
 -0.9200000      1.2510803E-35
 -0.9100000      1.6201036E-35
 -0.9000000      1.9869316E-35
 -0.8900000      2.3117437E-35
 -0.8800000      2.5118268E-35
 -0.8700000      2.5405375E-35
 -0.8600000      2.3515446E-35
 -0.8500000      1.8932773E-35
 -0.8400000      1.1672765E-35
 -0.8300000      1.4185756E-36
 -0.8200000     -1.2378179E-35
 -0.8100000     -3.0092466E-35
 -0.8000000     -5.1520333E-35
 -0.7900000     -7.6127964E-35
 -0.7800000     -1.0333693E-34
 -0.7700000     -1.3201187E-34
 -0.7600000     -1.5994160E-34
 -0.7500000     -1.8472273E-34
 -0.7400000     -2.0337308E-34
 -0.7300000     -2.1237374E-34
 -0.7200000     -2.0808002E-34
 -0.7100000     -1.8640289E-34
 -0.7000000     -1.4407154E-34
 -0.6900000     -7.6647162E-35
 -0.6800000      1.9612670E-35
 -0.6700000      1.4533254E-34
 -0.6600000      2.9944302E-34
 -0.6500000      4.7912415E-34
 -0.6400000      6.7838261E-34
 -0.6300000      8.8894841E-34
 -0.6200000      1.1015984E-33
 -0.6100000      1.3021641E-33
 -0.6000000      1.4691994E-33
 -0.5900000      1.5806338E-33
 -0.5800000      1.6132264E-33
 -0.5700000      1.5450477E-33
 -0.5600000      1.3519548E-33
 -0.5500000      1.0070030E-33
 -0.5400000      4.9197781E-34
 -0.5300000     -2.0692356E-34
 -0.5200000     -1.0984470E-33
 -0.5100000     -2.1758487E-33
 -0.5000000     -3.4175489E-33
 -0.4900000     -4.7871438E-33
 -0.4800000     -6.2285405E-33
 -0.4700000     -7.6632115E-33
 -0.4600000     -8.9957776E-33
 -0.4500000     -1.0113535E-32
 -0.4400000     -1.0880639E-32
 -0.4300000     -1.1151023E-32
 -0.4200000     -1.0772106E-32
 -0.4100000     -9.5921683E-33
 -0.4000000     -7.4713245E-33
 -0.3900000     -4.2931702E-33
 -0.3800000      2.0941339E-35
 -0.3700000      5.4995893E-33
 -0.3600000      1.2105092E-32
 -0.3500000      1.9719392E-32
 -0.3400000      2.8131058E-32
 -0.3300000      3.7025897E-32
 -0.3200000      4.5980517E-32
 -0.3100000      5.4461000E-32
 -0.3000000      6.1828969E-32
 -0.2900000      6.7354621E-32
 -0.2800000      7.0237639E-32
 -0.2700000      6.9638037E-32
 -0.2600000      6.4717394E-32
 -0.2500000      5.4687389E-32
 -0.2400000      3.8866322E-32
 -0.2300000      1.6744525E-32
 -0.2200000     -1.1947283E-32
 -0.2100000     -4.7167789E-32
 -0.2000000     -8.8496986E-32
 -0.1900000     -1.3507454E-31
 -0.1800000     -1.8554933E-31
 -0.1700000     -2.3804543E-31
 -0.1600000     -2.9014965E-31
 -0.1500000     -3.3892652E-31
 -0.1400000     -3.8096359E-31
 -0.1300000     -4.1245233E-31
 -0.1200000     -4.2930803E-31
 -0.1100000     -4.2732760E-31
 -0.1000000     -4.0238625E-31
 -9.0000004E-02 -3.5067094E-31
 -7.9999998E-02 -2.6893966E-31
 -7.0000000E-02 -1.5480843E-31
 -5.9999999E-02 -7.0500737E-33
 -5.0000001E-02  1.7411275E-31
 -3.9999999E-02  3.8672690E-31
 -2.9999999E-02  6.2686217E-31
 -2.0000000E-02  8.8841681E-31
 -9.9999998E-03  1.1629940E-30
 -3.4694470E-17  1.4398682E-30
  9.9999998E-03  1.7060595E-30
  2.0000000E-02  1.9465321E-30
  2.9999999E-02  2.1445303E-30
  3.9999999E-02  2.2820594E-30
  5.0000001E-02  2.3405161E-30
  5.9999999E-02  2.3014684E-30
  7.0000000E-02  2.1475723E-30
  7.9999998E-02  1.8636161E-30
  9.0000004E-02  1.4376632E-30
  0.1000000      8.6227203E-31
  0.1100000      1.3575542E-31
  0.1200000     -7.3656241E-31
  0.1300000     -1.7411296E-30
  0.1400000     -2.8550388E-30
  0.1500000     -4.0450325E-30
  0.1600000     -5.2666849E-30
  0.1700000     -6.4637993E-30
  0.1800000     -7.5680531E-30
  0.1900000     -8.4989137E-30
  0.2000000     -9.1638478E-30
  0.2100000     -9.4588137E-30
  0.2200000     -9.2690434E-30
  0.2300000     -8.4700849E-30
  0.2400000     -6.9290686E-30
  0.2500000     -4.5061664E-30
  0.2600000     -1.0561868E-30
  0.2700000      3.5697537E-30
  0.2800000      9.5225402E-30
  0.2900000      1.6953403E-29
  0.3000000      2.6012353E-29
  0.3100000      3.6846768E-29
  0.3200000      4.9600111E-29
  0.3300000      6.4410885E-29
  0.3400000      8.1411743E-29
  0.3500000      1.0072874E-28
  0.3600000      1.2248075E-28
  0.3700000      1.4677892E-28
  0.3800000      1.7372612E-28
  0.3900000      2.0341626E-28
  0.4000000      2.3593345E-28
  0.4100000      2.7135096E-28
  0.4200000      3.0972964E-28
  0.4300000      3.5111600E-28
  0.4400000      3.9553988E-28
  0.4500000      4.4301165E-28
  0.4600000      4.9351883E-28
  0.4700000      5.4702227E-28
  0.4800000      6.0345269E-28
  0.4900000      6.6270662E-28
  0.5000000      7.2464270E-28
  0.5100000      7.8907829E-28
  0.5200000      8.5578745E-28
  0.5300000      9.2449914E-28
  0.5400000      9.9489785E-28
  0.5500000      1.0666248E-27
  0.5600000      1.1392827E-27
  0.5700000      1.2124412E-27
  0.5800000      1.2856456E-27
  0.5900000      1.3584284E-27
  0.6000000      1.4303227E-27
  0.6100000      1.5008775E-27
  0.6200000      1.5696758E-27
  0.6300000      1.6363541E-27
  0.6400000      1.7006221E-27
  0.6500000      1.7622829E-27
  0.6600000      1.8212533E-27
  0.6700000      1.8775826E-27
  0.6800000      1.9314678E-27
  0.6900000      1.9832687E-27
  0.7000000      2.0335161E-27
  0.7100000      2.0829173E-27
  0.7200000      2.1323563E-27
  0.7300000      2.1828877E-27
  0.7400000      2.2357268E-27
  0.7500000      2.2922339E-27
  0.7600000      2.3538939E-27
  0.7700000      2.4222893E-27
  0.7800000      2.4990736E-27
  0.7900000      2.5859419E-27
  0.8000000      2.6845994E-27
  0.8100000      2.7967324E-27
  0.8200000      2.9239794E-27
  0.8300000      3.0679076E-27
  0.8400000      3.2299971E-27
  0.8500000      3.4116254E-27
  0.8600000      3.6140669E-27
  0.8700000      3.8384909E-27
  0.8800000      4.0859790E-27
  0.8900000      4.3575398E-27
  0.9000000      4.6541349E-27
  0.9100000      4.9767128E-27
  0.9200000      5.3262394E-27
  0.9300000      5.7037359E-27
  0.9400000      6.1103143E-27
  0.9500000      6.5472081E-27
  0.9600000      7.0157969E-27
  0.9700000      7.5176226E-27
  0.9800000      8.0543923E-27
  0.9900000      8.6279682E-27
   1.000000      9.2403476E-27
   1.010000      9.8936292E-27
   1.020000      1.0589953E-26
   1.030000      1.1331440E-26
   1.040000      1.2120107E-26
   1.050000      1.2957805E-26
   1.060000      1.3846099E-26
   1.070000      1.4786204E-26
   1.080000      1.5778896E-26
   1.090000      1.6824442E-26
   1.100000      1.7922538E-26
   1.110000      1.9072284E-26
   1.120000      2.0272161E-26
   1.130000      2.1520055E-26
   1.140000      2.2813298E-26
   1.150000      2.4148753E-26
   1.160000      2.5522917E-26
   1.170000      2.6932029E-26
   1.180000      2.8372264E-26
   1.190000      2.9839866E-26
   1.200000      3.1331340E-26
   1.210000      3.2843623E-26
   1.220000      3.4374235E-26
   1.230000      3.5921444E-26
   1.240000      3.7484368E-26
   1.250000      3.9063052E-26
   1.260000      4.0658507E-26
   1.270000      4.2272674E-26
   1.280000      4.3908380E-26
   1.290000      4.5569200E-26
   1.300000      4.7259286E-26
   1.310000      4.8983132E-26
   1.320000      5.0745330E-26
   1.330000      5.2550302E-26
   1.340000      5.4401974E-26
   1.350000      5.6303499E-26
   1.360000      5.8257002E-26
   1.370000      6.0263334E-26
   1.380000      6.2321885E-26
   1.390000      6.4430492E-26
   1.400000      6.6585345E-26
   1.410000      6.8781060E-26
   1.420000      7.1010775E-26
   1.430000      7.3266393E-26
   1.440000      7.5538867E-26
   1.450000      7.7818478E-26
   1.460000      8.0095310E-26
   1.470000      8.2359648E-26
   1.480000      8.4602374E-26
   1.490000      8.6815357E-26
   1.500000      8.8991849E-26
   1.510000      9.1126710E-26
   1.520000      9.3216618E-26
   1.530000      9.5260014E-26
   1.540000      9.7257046E-26
   1.550000      9.9209298E-26
   1.560000      1.0111941E-25
   1.570000      1.0299051E-25
   1.580000      1.0482550E-25
   1.590000      1.0662631E-25
   1.600000      1.0839295E-25
   1.610000      1.1012270E-25
   1.620000      1.1180927E-25
   1.630000      1.1344202E-25
   1.640000      1.1500505E-25
   1.650000      1.1647692E-25
   1.660000      1.1783011E-25
   1.670000      1.1903110E-25
   1.680000      1.2004040E-25
   1.690000      1.2081296E-25
   1.700000      1.2129894E-25
   1.710000      1.2144463E-25
   1.720000      1.2119361E-25
   1.730000      1.2048815E-25
   1.740000      1.1927067E-25
   1.750000      1.1748518E-25
   1.760000      1.1507887E-25
   1.770000      1.1200347E-25
   1.780000      1.0821654E-25
   1.790000      1.0368242E-25
   1.800000      9.8372668E-26
   1.810000      9.2266515E-26
   1.820000      8.5350799E-26
   1.830000      7.7619352E-26
   1.840000      6.9071860E-26
   1.850000      5.9712746E-26
   1.860000      4.9549592E-26
   1.870000      3.8590992E-26
   1.880000      2.6844678E-26
   1.890000      1.4315745E-26
   1.900000      1.0041489E-27
   1.910000     -1.3096948E-26
   1.920000     -2.8002171E-26
   1.930000     -4.3735006E-26
   1.940000     -6.0328292E-26
   1.950000     -7.7824043E-26
   1.960000     -9.6272295E-26
   1.970000     -1.1572983E-25
   1.980000     -1.3625795E-25
   1.990000     -1.5791950E-25
   2.000000     -1.8077594E-25
   2.010000     -2.0488368E-25
   2.020000     -2.3029022E-25
   2.030000     -2.5703068E-25
   2.040000     -2.8512426E-25
   2.050000     -3.1457140E-25
   2.060000     -3.4535127E-25
   2.070000     -3.7742017E-25
   2.080000     -4.1071077E-25
   2.090000     -4.4513281E-25
   2.100000     -4.8057416E-25
   2.110000     -5.1690338E-25
   2.120000     -5.5397294E-25
   2.130000     -5.9162374E-25
   2.140000     -6.2968973E-25
   2.150000     -6.6800386E-25
   2.160000     -7.0640280E-25
   2.170000     -7.4473272E-25
   2.180000     -7.8285398E-25
   2.190000     -8.2064574E-25
   2.200000     -8.5800920E-25
   2.210000     -8.9486922E-25
   2.220000     -9.3117486E-25
   2.230000     -9.6689882E-25
   2.240000     -1.0020343E-24
   2.250000     -1.0365910E-24
   2.260000     -1.0705896E-24
   2.270000     -1.1040549E-24
   2.280000     -1.1370093E-24
   2.290000     -1.1694636E-24
   2.300000     -1.2014097E-24
   2.310000     -1.2328129E-24
   2.320000     -1.2636052E-24
   2.330000     -1.2936803E-24
   2.340000     -1.3228895E-24
   2.350000     -1.3510411E-24
   2.360000     -1.3779003E-24
   2.370000     -1.4031937E-24
   2.380000     -1.4266143E-24
   2.390000     -1.4478294E-24
   2.400000     -1.4664912E-24
   2.410000     -1.4822485E-24
   2.420000     -1.4947595E-24
   2.430000     -1.5037056E-24
   2.440000     -1.5088040E-24
   2.450000     -1.5098211E-24
   2.460000     -1.5065829E-24
   2.470000     -1.4989842E-24
   2.480000     -1.4869944E-24
   2.490000     -1.4706604E-24
   2.500000     -1.4501054E-24
   2.510000     -1.4255260E-24
   2.520000     -1.3971832E-24
   2.530000     -1.3653919E-24
   2.540000     -1.3305068E-24
   2.550000     -1.2929064E-24
   2.560000     -1.2529762E-24
   2.570000     -1.2110891E-24
   2.580000     -1.1675903E-24
   2.590000     -1.1227798E-24
   2.600000     -1.0769003E-24
   2.610000     -1.0301266E-24
   2.620000     -9.8256067E-25
   2.630000     -9.3423042E-25
   2.640000     -8.8509375E-25
   2.650000     -8.3504851E-25
   2.660000     -7.8394699E-25
   2.670000     -7.3161376E-25
   2.680000     -6.7786842E-25
   2.690000     -6.2255054E-25
   2.700000     -5.6554562E-25
   2.710000     -5.0681094E-25
   2.720000     -4.4639928E-25
   2.730000     -3.8448065E-25
   2.740000     -3.2135935E-25
   2.750000     -2.5748398E-25
   2.760000     -1.9345148E-25
   2.770000     -1.3000406E-25
   2.780000     -6.8017208E-26
   2.790000     -8.4807709E-27
   2.800000      4.7527622E-26
   2.810000      9.8875512E-26
   2.820000      1.4441382E-25
   2.830000      1.8301848E-25
   2.840000      2.1363421E-25
   2.850000      2.3531736E-25
   2.860000      2.4727612E-25
   2.870000      2.4890677E-25
   2.880000      2.3982249E-25
   2.890000      2.1987454E-25
   2.900000      1.8916371E-25
   2.910000      1.4804136E-25
   2.920000      9.7099619E-26
   2.930000      3.7151250E-26
   2.940000     -3.0800559E-26
   2.950000     -1.0560004E-25
   2.960000     -1.8598257E-25
   2.970000     -2.7062342E-25
   2.980000     -3.5818676E-25
   2.990000     -4.4737308E-25
   3.000000     -5.3696288E-25
   3.010000     -6.2585088E-25
   3.020000     -7.1307154E-25
   3.030000     -7.9781324E-25
   3.040000     -8.7941711E-25
   3.050000     -9.5736140E-25
   3.060000     -1.0312331E-24
   3.070000     -1.1006854E-24
   3.080000     -1.1653804E-24
   3.090000     -1.2249255E-24
   3.100000     -1.2788006E-24
   3.110000     -1.3262848E-24
   3.120000     -1.3663822E-24
   3.130000     -1.3977516E-24
   3.140000     -1.4186477E-24
   3.150000     -1.4268759E-24
   3.160000     -1.4197609E-24
   3.170000     -1.3941372E-24
   3.180000     -1.3463611E-24
   3.190000     -1.2723430E-24
   3.200000     -1.1676025E-24
   3.210000     -1.0273432E-24
   3.220000     -8.4654853E-25
   3.230000     -6.2009176E-25
   3.240000     -3.4285226E-25
   3.250000     -9.8433679E-27
   3.260000      3.8366356E-25
   3.270000      8.4202214E-25
   3.280000      1.3691008E-24
   3.290000      1.9681900E-24
   3.300000      2.6419299E-24
   3.310000      3.3922656E-24
   3.320000      4.2204236E-24
   3.330000      5.1269127E-24
   3.340000      6.1115555E-24
   3.350000      7.1735390E-24
   3.360000      8.3114866E-24
   3.370000      9.5235398E-24
   3.380000      1.0807454E-23
   3.390000      1.2160691E-23
   3.400000      1.3580499E-23
   3.410000      1.5063990E-23
   3.420000      1.6608181E-23
   3.430000      1.8210019E-23
   3.440000      1.9866370E-23
   3.450000      2.1573965E-23
   3.460000      2.3329313E-23
   3.470000      2.5128572E-23
   3.480000      2.6967384E-23
   3.490000      2.8840676E-23
   3.500000      3.0742436E-23
   3.510000      3.2665468E-23
   3.520000      3.4601137E-23
   3.530000      3.6539119E-23
   3.540000      3.8467152E-23
   3.550000      4.0370815E-23
   3.560000      4.2233338E-23
   3.570000      4.4035450E-23
   3.580000      4.5755258E-23
   3.590000      4.7368210E-23
   3.600000      4.8847085E-23
   3.610000      5.0162021E-23
   3.620000      5.1280648E-23
   3.630000      5.2168205E-23
   3.640000      5.2787732E-23
   3.650000      5.3100260E-23
   3.660000      5.3065045E-23
   3.670000      5.2639811E-23
   3.680000      5.1780924E-23
   3.690000      5.0443603E-23
   3.700000      4.8582097E-23
   3.710000      4.6149777E-23
   3.720000      4.3099204E-23
   3.730000      3.9382161E-23
   3.740000      3.4949618E-23
   3.750000      2.9751649E-23
   3.760000      2.3737293E-23
   3.770000      1.6854409E-23
   3.780000      9.0494786E-24
   3.790000      2.6741717E-25
   3.800000     -9.5485838E-24
   3.810000     -2.0457161E-23
   3.820000     -3.2518904E-23
   3.830000     -4.5796411E-23
   3.840000     -6.0354176E-23
   3.850000     -7.6258426E-23
   3.860000     -9.3576852E-23
   3.870000     -1.1237830E-22
   3.880000     -1.3273217E-22
   3.890000     -1.5470792E-22
   3.900000     -1.7837426E-22
   3.910000     -2.0379847E-22
   3.920000     -2.3104542E-22
   3.930000     -2.6017670E-22
   3.940000     -2.9124962E-22
   3.950000     -3.2431627E-22
   3.960000     -3.5942242E-22
   3.970000     -3.9660675E-22
   3.980000     -4.3589980E-22
   3.990000     -4.7732310E-22
   4.000000     -5.2088847E-22
   4.010000     -5.6659721E-22
   4.020000     -6.1443954E-22
   4.030000     -6.6439385E-22
   4.040000     -7.1642621E-22
   4.050000     -7.7049001E-22
   4.060000     -8.2652519E-22
   4.070000     -8.8445792E-22
   4.080000     -9.4419991E-22
   4.090000     -1.0056478E-21
   4.100000     -1.0686823E-21
   4.110000     -1.1331681E-21
   4.120000     -1.1989515E-21
   4.130000     -1.2658610E-21
   4.140000     -1.3337045E-21
   4.150000     -1.4022689E-21
   4.160000     -1.4713182E-21
   4.170000     -1.5405919E-21
   4.180000     -1.6098029E-21
   4.190000     -1.6786363E-21
   4.200000     -1.7467470E-21
   4.210000     -1.8137579E-21
   4.220000     -1.8792580E-21
   4.230000     -1.9428013E-21
   4.240000     -2.0039042E-21
   4.250000     -2.0620443E-21
   4.260000     -2.1166597E-21
   4.270000     -2.1671474E-21
   4.280000     -2.2128628E-21
   4.290000     -2.2531190E-21
   4.300000     -2.2871861E-21
   4.310000     -2.3142922E-21
   4.320000     -2.3336233E-21
   4.330000     -2.3443230E-21
   4.340000     -2.3454936E-21
   4.350000     -2.3361976E-21
   4.360000     -2.3154579E-21
   4.370000     -2.2822594E-21
   4.380000     -2.2355499E-21
   4.390000     -2.1742414E-21
   4.400000     -2.0972122E-21
   4.410000     -2.0033072E-21
   4.420000     -1.8913402E-21
   4.430000     -1.7600957E-21
   4.440000     -1.6083296E-21
   4.450000     -1.4347725E-21
   4.460000     -1.2381307E-21
   4.470000     -1.0170890E-21
   4.480000     -7.7031381E-22
   4.490000     -4.9645584E-22
   4.500000     -1.9415326E-22
   4.510000      1.3796421E-22
   4.520000      5.0126958E-22
   4.530000      8.9713402E-22
   4.540000      1.3269206E-21
   4.550000      1.7919775E-21
   4.560000      2.2936303E-21
   4.570000      2.8331744E-21
   4.580000      3.4118660E-21
   4.590000      4.0309117E-21
   4.600000      4.6914590E-21
   4.610000      5.3945836E-21
   4.620000      6.1412793E-21
   4.630000      6.9324456E-21
   4.640000      7.7688747E-21
   4.650000      8.6512397E-21
   4.660000      9.5800771E-21
   4.670000      1.0555779E-20
   4.680000      1.1578574E-20
   4.690000      1.2648516E-20
   4.700000      1.3765468E-20
   4.710000      1.4929091E-20
   4.720000      1.6138824E-20
   4.730000      1.7393870E-20
   4.740000      1.8693185E-20
   4.750000      2.0035460E-20
   4.760000      2.1419105E-20
   4.770000      2.2842229E-20
   4.780000      2.4302633E-20
   4.790000      2.5797784E-20
   4.800000      2.7324803E-20
   4.810000      2.8880446E-20
   4.820000      3.0461091E-20
   4.830000      3.2062706E-20
   4.840000      3.3680849E-20
   4.850000      3.5310631E-20
   4.860000      3.6946720E-20
   4.870000      3.8583300E-20
   4.880000      4.0214064E-20
   4.890000      4.1832204E-20
   4.900000      4.3430381E-20
   4.910000      4.5000709E-20
   4.920000      4.6534758E-20
   4.930000      4.8023518E-20
   4.940000      4.9457407E-20
   4.950000      5.0826236E-20
   4.960000      5.2119229E-20
   4.970000      5.3324996E-20
   4.980000      5.4431541E-20
   4.990000      5.5426252E-20
   5.000000      5.6295890E-20
   5.010000      5.7026626E-20
   5.020000      5.7604011E-20
   5.030000      5.8013000E-20
   5.040000      5.8237974E-20
   5.050000      5.8262725E-20
   5.060000      5.8070496E-20
   5.070000      5.7643994E-20
   5.080000      5.6965402E-20
   5.090000      5.6016438E-20
   5.100000      5.4778324E-20
   5.110000      5.3231890E-20
   5.120000      5.1357563E-20
   5.130000      4.9135427E-20
   5.140000      4.6545253E-20
   5.150000      4.3566559E-20
   5.160000      4.0178679E-20
   5.170000      3.6360789E-20
   5.180000      3.2091984E-20
   5.190000      2.7351357E-20
   5.200000      2.2118066E-20
   5.210000      1.6371402E-20
   5.220000      1.0090889E-20
   5.230000      3.2563861E-21
   5.240000     -4.1518428E-21
   5.250000     -1.2153002E-20
   5.260000     -2.0765645E-20
   5.270000     -3.0007570E-20
   5.280000     -3.9895687E-20
   5.290000     -5.0445917E-20
   5.300000     -6.1673023E-20
   5.310000     -7.3590459E-20
   5.320000     -8.6210276E-20
   5.330000     -9.9542896E-20
   5.340000     -1.1359701E-19
   5.350000     -1.2837934E-19
   5.360000     -1.4389458E-19
   5.370000     -1.6014513E-19
   5.380000     -1.7713094E-19
   5.390000     -1.9484939E-19
   5.400000     -2.1329500E-19
   5.410000     -2.3245928E-19
   5.420000     -2.5233062E-19
   5.430000     -2.7289392E-19
   5.440000     -2.9413059E-19
   5.450000     -3.1601818E-19
   5.460000     -3.3853031E-19
   5.470000     -3.6163638E-19
   5.480000     -3.8530140E-19
   5.490000     -4.0948576E-19
   5.500000     -4.3414512E-19
   5.510000     -4.5923020E-19
   5.520000     -4.8468632E-19
   5.530000     -5.1045367E-19
   5.540000     -5.3646664E-19
   5.550000     -5.6265399E-19
   5.560000     -5.8893864E-19
   5.570000     -6.1523719E-19
   5.580000     -6.4146011E-19
   5.590000     -6.6751149E-19
   5.600000     -6.9328882E-19
   5.610000     -7.1868290E-19
   5.620000     -7.4357778E-19
   5.630000     -7.6785062E-19
   5.640000     -7.9137165E-19
   5.650000     -8.1400404E-19
   5.660000     -8.3560390E-19
   5.670000     -8.5602037E-19
   5.680000     -8.7509526E-19
   5.690000     -8.9266375E-19
   5.700000     -9.0855357E-19
   5.710000     -9.2258587E-19
   5.720000     -9.3457492E-19
   5.730000     -9.4432831E-19
   5.740000     -9.5164731E-19
   5.750000     -9.5632677E-19
   5.760000     -9.5815577E-19
   5.770000     -9.5691758E-19
   5.780000     -9.5239011E-19
   5.790000     -9.4434620E-19
   5.800000     -9.3255422E-19
   5.810000     -9.1677823E-19
   5.820000     -8.9677887E-19
   5.830000     -8.7231334E-19
   5.840000     -8.4313667E-19
   5.850000     -8.0900172E-19
   5.860000     -7.6966028E-19
   5.870000     -7.2486385E-19
   5.880000     -6.7436427E-19
   5.890000     -6.1791441E-19
   5.900000     -5.5526939E-19
   5.910000     -4.8618735E-19
   5.920000     -4.1043068E-19
   5.930000     -3.2776688E-19
   5.940000     -2.3796983E-19
   5.950000     -1.4082073E-19
   5.960000     -3.6109807E-20
   5.970000      7.6362787E-20
   5.980000      1.9678565E-19
   5.990000      3.2533461E-19
   6.000000      4.6217114E-19
   6.010000      6.0744070E-19
   6.020000      7.6127148E-19
   6.030000      9.2377277E-19
   6.040000      1.0950330E-18
   6.050000      1.2751186E-18
   6.060000      1.4640714E-18
   6.070000      1.6619079E-18
   6.080000      1.8686165E-18
   6.090000      2.0841558E-18
   6.100000      2.3084533E-18
   6.110000      2.5414028E-18
   6.120000      2.7828631E-18
   6.130000      3.0326551E-18
   6.140000      3.2905603E-18
   6.150000      3.5563199E-18
   6.160000      3.8296312E-18
   6.170000      4.1101463E-18
   6.180000      4.3974712E-18
   6.190000      4.6911617E-18
   6.200000      4.9907235E-18
   6.210000      5.2956095E-18
   6.220000      5.6052182E-18
   6.230000      5.9188921E-18
   6.240000      6.2359161E-18
   6.250000      6.5555155E-18
   6.260000      6.8768545E-18
   6.270000      7.1990356E-18
   6.280000      7.5210967E-18
   6.290000      7.8420138E-18
   6.300000      8.1606934E-18
   6.310000      8.4759783E-18
   6.320000      8.7866425E-18
   6.330000      9.0913932E-18
   6.340000      9.3888697E-18
   6.350000      9.6776401E-18
   6.360000      9.9562081E-18
   6.370000      1.0223006E-17
   6.380000      1.0476400E-17
   6.390000      1.0714690E-17
   6.400000      1.0936108E-17
   6.410000      1.1138823E-17
   6.420000      1.1320941E-17
   6.430000      1.1480504E-17
   6.440000      1.1615500E-17
   6.450000      1.1723856E-17
   6.460000      1.1803445E-17
   6.470000      1.1852094E-17
   6.480000      1.1867578E-17
   6.490000      1.1847631E-17
   6.500000      1.1789949E-17
   6.510000      1.1692194E-17
   6.520000      1.1551998E-17
   6.530000      1.1366972E-17
   6.540000      1.1134707E-17
   6.550000      1.0852785E-17
   6.560000      1.0518784E-17
   6.570000      1.0130285E-17
   6.580000      9.6848821E-18
   6.590000      9.1801861E-18
   6.600000      8.6138354E-18
   6.610000      7.9835080E-18
   6.620000      7.2869277E-18
   6.630000      6.5218766E-18
   6.640000      5.6862050E-18
   6.650000      4.7778391E-18
   6.660000      3.7947978E-18
   6.670000      2.7351999E-18
   6.680000      1.5972780E-18
   6.690000      3.7939171E-19
   6.700000     -9.1995874E-19
   6.710000     -2.3021200E-18
   6.720000     -3.7682726E-18
   6.730000     -5.3194136E-18
   6.740000     -6.9563458E-18
   6.750000     -8.6796608E-18
   6.760000     -1.0489725E-17
   6.770000     -1.2386662E-17
   6.780000     -1.4370342E-17
   6.790000     -1.6440365E-17
   6.800000     -1.8596033E-17
   6.810000     -2.0836355E-17
   6.820000     -2.3160018E-17
   6.830000     -2.5565368E-17
   6.840000     -2.8050403E-17
   6.850000     -3.0612750E-17
   6.860000     -3.3249666E-17
   6.870000     -3.5957995E-17
   6.880000     -3.8734175E-17
   6.890000     -4.1574220E-17
   6.900000     -4.4473693E-17
   6.910000     -4.7427714E-17
   6.920000     -5.0430919E-17
   6.930000     -5.3477475E-17
   6.940000     -5.6561055E-17
   6.950000     -5.9674814E-17
   6.960000     -6.2811417E-17
   6.970000     -6.5962989E-17
   6.980000     -6.9121131E-17
   6.990000     -7.2276898E-17
   7.000000     -7.5420806E-17
   7.010000     -7.8542831E-17
   7.020000     -8.1632383E-17
   7.030000     -8.4678327E-17
   7.040000     -8.7668975E-17
   7.050000     -9.0592086E-17
   7.060000     -9.3434861E-17