  -2.600000      0.0000000E+00
  -2.590000      0.0000000E+00
  -2.580000      0.0000000E+00
  -2.570000      0.0000000E+00
  -2.560000      0.0000000E+00
  -2.550000      0.0000000E+00
  -2.540000      0.0000000E+00
  -2.530000      0.0000000E+00
  -2.520000      0.0000000E+00
  -2.510000      0.0000000E+00
  -2.500000      0.0000000E+00
  -2.490000      0.0000000E+00
  -2.480000      0.0000000E+00
  -2.470000      0.0000000E+00
  -2.460000      0.0000000E+00
  -2.450000      0.0000000E+00
  -2.440000      0.0000000E+00
  -2.430000      0.0000000E+00
  -2.420000      0.0000000E+00
  -2.410000      0.0000000E+00
  -2.400000      0.0000000E+00
  -2.390000      0.0000000E+00
  -2.380000      0.0000000E+00
  -2.370000      0.0000000E+00
  -2.360000      0.0000000E+00
  -2.350000      0.0000000E+00
  -2.340000      0.0000000E+00
  -2.330000      0.0000000E+00
  -2.320000      0.0000000E+00
  -2.310000      0.0000000E+00
  -2.300000      0.0000000E+00
  -2.290000      0.0000000E+00
  -2.280000      0.0000000E+00
  -2.270000      0.0000000E+00
  -2.260000      0.0000000E+00
  -2.250000      0.0000000E+00
  -2.240000      0.0000000E+00
  -2.230000      0.0000000E+00
  -2.220000      0.0000000E+00
  -2.210000      0.0000000E+00
  -2.200000      0.0000000E+00
  -2.190000      0.0000000E+00
  -2.180000      0.0000000E+00
  -2.170000      0.0000000E+00
  -2.160000      0.0000000E+00
  -2.150000      0.0000000E+00
  -2.140000      0.0000000E+00
  -2.130000      0.0000000E+00
  -2.120000      0.0000000E+00
  -2.110000      0.0000000E+00
  -2.100000      0.0000000E+00
  -2.090000      0.0000000E+00
  -2.080000      0.0000000E+00
  -2.070000      0.0000000E+00
  -2.060000      0.0000000E+00
  -2.050000      0.0000000E+00
  -2.040000      0.0000000E+00
  -2.030000      0.0000000E+00
  -2.020000      0.0000000E+00
  -2.010000      0.0000000E+00
  -2.000000      0.0000000E+00
  -1.990000      0.0000000E+00
  -1.980000      0.0000000E+00
  -1.970000      0.0000000E+00
  -1.960000      0.0000000E+00
  -1.950000      0.0000000E+00
  -1.940000      0.0000000E+00
  -1.930000      0.0000000E+00
  -1.920000      0.0000000E+00
  -1.910000      0.0000000E+00
  -1.900000      0.0000000E+00
  -1.890000      0.0000000E+00
  -1.880000      0.0000000E+00
  -1.870000      0.0000000E+00
  -1.860000      0.0000000E+00
  -1.850000      0.0000000E+00
  -1.840000      0.0000000E+00
  -1.830000      0.0000000E+00
  -1.820000      0.0000000E+00
  -1.810000      0.0000000E+00
  -1.800000      0.0000000E+00
  -1.790000      0.0000000E+00
  -1.780000      0.0000000E+00
  -1.770000      0.0000000E+00
  -1.760000      0.0000000E+00
  -1.750000      0.0000000E+00
  -1.740000      0.0000000E+00
  -1.730000      0.0000000E+00
  -1.720000      0.0000000E+00
  -1.710000      0.0000000E+00
  -1.700000      0.0000000E+00
  -1.690000      0.0000000E+00
  -1.680000      0.0000000E+00
  -1.670000      0.0000000E+00
  -1.660000      0.0000000E+00
  -1.650000      0.0000000E+00
  -1.640000      0.0000000E+00
  -1.630000      0.0000000E+00
  -1.620000      0.0000000E+00
  -1.610000      0.0000000E+00
  -1.600000      0.0000000E+00
  -1.590000      0.0000000E+00
  -1.580000      0.0000000E+00
  -1.570000      0.0000000E+00
  -1.560000      0.0000000E+00
  -1.550000      0.0000000E+00
  -1.540000      0.0000000E+00
  -1.530000      0.0000000E+00
  -1.520000      0.0000000E+00
  -1.510000      0.0000000E+00
  -1.500000      0.0000000E+00
  -1.490000      0.0000000E+00
  -1.480000      0.0000000E+00
  -1.470000      0.0000000E+00
  -1.460000      0.0000000E+00
  -1.450000      0.0000000E+00
  -1.440000      0.0000000E+00
  -1.430000      0.0000000E+00
  -1.420000      0.0000000E+00
  -1.410000      0.0000000E+00
  -1.400000      0.0000000E+00
  -1.390000      0.0000000E+00
  -1.380000      0.0000000E+00
  -1.370000      0.0000000E+00
  -1.360000      0.0000000E+00
  -1.350000      0.0000000E+00
  -1.340000      0.0000000E+00
  -1.330000      0.0000000E+00
  -1.320000      0.0000000E+00
  -1.310000      0.0000000E+00
  -1.300000      0.0000000E+00
  -1.290000      0.0000000E+00
  -1.280000      0.0000000E+00
  -1.270000      0.0000000E+00
  -1.260000      0.0000000E+00
  -1.250000      0.0000000E+00
  -1.240000      0.0000000E+00
  -1.230000      0.0000000E+00
  -1.220000      0.0000000E+00
  -1.210000      0.0000000E+00
  -1.200000      0.0000000E+00
  -1.190000      0.0000000E+00
  -1.180000      0.0000000E+00
  -1.170000      0.0000000E+00
  -1.160000      0.0000000E+00
  -1.150000      0.0000000E+00
  -1.140000      0.0000000E+00
  -1.130000      0.0000000E+00
  -1.120000      0.0000000E+00
  -1.110000      0.0000000E+00
  -1.100000      0.0000000E+00
  -1.090000      0.0000000E+00
  -1.080000      0.0000000E+00
  -1.070000      0.0000000E+00
  -1.060000      0.0000000E+00
  -1.050000      0.0000000E+00
  -1.040000      0.0000000E+00
  -1.030000      0.0000000E+00
  -1.020000      0.0000000E+00
  -1.010000      0.0000000E+00
  -1.000000      0.0000000E+00
 -0.9900000      0.0000000E+00
 -0.9800000      0.0000000E+00
 -0.9700000      0.0000000E+00
 -0.9600000      0.0000000E+00
 -0.9500000      0.0000000E+00
 -0.9400000      0.0000000E+00
 -0.9300000      0.0000000E+00
 -0.9200000      0.0000000E+00
 -0.9100000      0.0000000E+00
 -0.9000000      0.0000000E+00
 -0.8900000      0.0000000E+00
 -0.8800000      0.0000000E+00
 -0.8700000      0.0000000E+00
 -0.8600000      0.0000000E+00
 -0.8500000      0.0000000E+00
 -0.8400000      0.0000000E+00
 -0.8300000      0.0000000E+00
 -0.8200000      0.0000000E+00
 -0.8100000      0.0000000E+00
 -0.8000000      0.0000000E+00
 -0.7900000      0.0000000E+00
 -0.7800000      0.0000000E+00
 -0.7700000      0.0000000E+00
 -0.7600000      0.0000000E+00
 -0.7500000      0.0000000E+00
 -0.7400000      0.0000000E+00
 -0.7300000      0.0000000E+00
 -0.7200000      0.0000000E+00
 -0.7100000      0.0000000E+00
 -0.7000000      0.0000000E+00
 -0.6900000      0.0000000E+00
 -0.6800000      0.0000000E+00
 -0.6700000      0.0000000E+00
 -0.6600000      0.0000000E+00
 -0.6500000      0.0000000E+00
 -0.6400000      0.0000000E+00
 -0.6300000      0.0000000E+00
 -0.6200000      0.0000000E+00
 -0.6100000      0.0000000E+00
 -0.6000000      0.0000000E+00
 -0.5900000      0.0000000E+00
 -0.5800000      0.0000000E+00
 -0.5700000      0.0000000E+00
 -0.5600000      0.0000000E+00
 -0.5500000      0.0000000E+00
 -0.5400000      0.0000000E+00
 -0.5300000      0.0000000E+00
 -0.5200000      0.0000000E+00
 -0.5100000      0.0000000E+00
 -0.5000000      0.0000000E+00
 -0.4900000      0.0000000E+00
 -0.4800000      0.0000000E+00
 -0.4700000      0.0000000E+00
 -0.4600000      0.0000000E+00
 -0.4500000      0.0000000E+00
 -0.4400000      0.0000000E+00
 -0.4300000      0.0000000E+00
 -0.4200000      0.0000000E+00
 -0.4100000      0.0000000E+00
 -0.4000000      0.0000000E+00
 -0.3900000      0.0000000E+00
 -0.3800000      0.0000000E+00
 -0.3700000      0.0000000E+00
 -0.3600000      0.0000000E+00
 -0.3500000      0.0000000E+00
 -0.3400000      0.0000000E+00
 -0.3300000      0.0000000E+00
 -0.3200000      0.0000000E+00
 -0.3100000      0.0000000E+00
 -0.3000000      0.0000000E+00
 -0.2900000      0.0000000E+00
 -0.2800000      0.0000000E+00
 -0.2700000      0.0000000E+00
 -0.2600000      0.0000000E+00
 -0.2500000      0.0000000E+00
 -0.2400000      0.0000000E+00
 -0.2300000      0.0000000E+00
 -0.2200000      0.0000000E+00
 -0.2100000      0.0000000E+00
 -0.2000000      0.0000000E+00
 -0.1900000      0.0000000E+00
 -0.1800000      0.0000000E+00
 -0.1700000      0.0000000E+00
 -0.1600000      0.0000000E+00
 -0.1500000      0.0000000E+00
 -0.1400000      0.0000000E+00
 -0.1300000      0.0000000E+00
 -0.1200000      0.0000000E+00
 -0.1100000      0.0000000E+00
 -0.1000000      0.0000000E+00
 -9.0000004E-02  0.0000000E+00
 -7.9999998E-02  0.0000000E+00
 -7.0000000E-02  0.0000000E+00
 -5.9999999E-02  0.0000000E+00
 -5.0000001E-02  0.0000000E+00
 -3.9999999E-02  0.0000000E+00
 -2.9999999E-02  0.0000000E+00
 -2.0000000E-02  0.0000000E+00
 -9.9999998E-03  0.0000000E+00
 -3.4694470E-17  0.0000000E+00
  9.9999998E-03  0.0000000E+00
  2.0000000E-02  0.0000000E+00
  2.9999999E-02  0.0000000E+00
  3.9999999E-02  0.0000000E+00
  5.0000001E-02  0.0000000E+00
  5.9999999E-02  0.0000000E+00
  7.0000000E-02  0.0000000E+00
  7.9999998E-02  0.0000000E+00
  9.0000004E-02  0.0000000E+00
  0.1000000      0.0000000E+00
  0.1100000      0.0000000E+00
  0.1200000      0.0000000E+00
  0.1300000      0.0000000E+00
  0.1400000      0.0000000E+00
  0.1500000      0.0000000E+00
  0.1600000      0.0000000E+00
  0.1700000      0.0000000E+00
  0.1800000      0.0000000E+00
  0.1900000      0.0000000E+00
  0.2000000      0.0000000E+00
  0.2100000      0.0000000E+00
  0.2200000      0.0000000E+00
  0.2300000      0.0000000E+00
  0.2400000      0.0000000E+00
  0.2500000      0.0000000E+00
  0.2600000      0.0000000E+00
  0.2700000      0.0000000E+00
  0.2800000      0.0000000E+00
  0.2900000      0.0000000E+00
  0.3000000      0.0000000E+00
  0.3100000      0.0000000E+00
  0.3200000      0.0000000E+00
  0.3300000      0.0000000E+00
  0.3400000      0.0000000E+00
  0.3500000      0.0000000E+00
  0.3600000      0.0000000E+00
  0.3700000      0.0000000E+00
  0.3800000      0.0000000E+00
  0.3900000      0.0000000E+00
  0.4000000      0.0000000E+00
  0.4100000      0.0000000E+00
  0.4200000      0.0000000E+00
  0.4300000      0.0000000E+00
  0.4400000      0.0000000E+00
  0.4500000      0.0000000E+00
  0.4600000      0.0000000E+00
  0.4700000      0.0000000E+00
  0.4800000      0.0000000E+00
  0.4900000      0.0000000E+00
  0.5000000      0.0000000E+00
  0.5100000      0.0000000E+00
  0.5200000      0.0000000E+00
  0.5300000      0.0000000E+00
  0.5400000      0.0000000E+00
  0.5500000      0.0000000E+00
  0.5600000      0.0000000E+00
  0.5700000      0.0000000E+00
  0.5800000      0.0000000E+00
  0.5900000      0.0000000E+00
  0.6000000      0.0000000E+00
  0.6100000      0.0000000E+00
  0.6200000      0.0000000E+00
  0.6300000      0.0000000E+00
  0.6400000      0.0000000E+00
  0.6500000      0.0000000E+00
  0.6600000      0.0000000E+00
  0.6700000      0.0000000E+00
  0.6800000      0.0000000E+00
  0.6900000      0.0000000E+00
  0.7000000      0.0000000E+00
  0.7100000      0.0000000E+00
  0.7200000      0.0000000E+00
  0.7300000      0.0000000E+00
  0.7400000      0.0000000E+00
  0.7500000      0.0000000E+00
  0.7600000      0.0000000E+00
  0.7700000      0.0000000E+00
  0.7800000      0.0000000E+00
  0.7900000      0.0000000E+00
  0.8000000      0.0000000E+00
  0.8100000      0.0000000E+00
  0.8200000      0.0000000E+00
  0.8300000      0.0000000E+00
  0.8400000      0.0000000E+00
  0.8500000      0.0000000E+00
  0.8600000      0.0000000E+00
  0.8700000      0.0000000E+00
  0.8800000      0.0000000E+00
  0.8900000      0.0000000E+00
  0.9000000      0.0000000E+00
  0.9100000      0.0000000E+00
  0.9200000      0.0000000E+00
  0.9300000      0.0000000E+00
  0.9400000      0.0000000E+00
  0.9500000      0.0000000E+00
  0.9600000      0.0000000E+00
  0.9700000      0.0000000E+00
  0.9800000      0.0000000E+00
  0.9900000      0.0000000E+00
   1.000000      0.0000000E+00
   1.010000      0.0000000E+00
   1.020000      0.0000000E+00
   1.030000      0.0000000E+00
   1.040000      0.0000000E+00
   1.050000      0.0000000E+00
   1.060000      0.0000000E+00
   1.070000      0.0000000E+00
   1.080000      0.0000000E+00
   1.090000      0.0000000E+00
   1.100000      0.0000000E+00
   1.110000      0.0000000E+00
   1.120000      0.0000000E+00
   1.130000      0.0000000E+00
   1.140000      0.0000000E+00
   1.150000      0.0000000E+00
   1.160000      0.0000000E+00
   1.170000      0.0000000E+00
   1.180000      0.0000000E+00
   1.190000      0.0000000E+00
   1.200000      0.0000000E+00
   1.210000      0.0000000E+00
   1.220000      0.0000000E+00
   1.230000      0.0000000E+00
   1.240000      0.0000000E+00
   1.250000      0.0000000E+00
   1.260000      0.0000000E+00
   1.270000      0.0000000E+00
   1.280000      0.0000000E+00
   1.290000      0.0000000E+00
   1.300000      0.0000000E+00
   1.310000      0.0000000E+00
   1.320000      0.0000000E+00
   1.330000      0.0000000E+00
   1.340000      0.0000000E+00
   1.350000      0.0000000E+00
   1.360000      0.0000000E+00
   1.370000      0.0000000E+00
   1.380000      0.0000000E+00
   1.390000      0.0000000E+00
   1.400000      0.0000000E+00
   1.410000      0.0000000E+00
   1.420000      0.0000000E+00
   1.430000      0.0000000E+00
   1.440000      0.0000000E+00
   1.450000      0.0000000E+00
   1.460000      0.0000000E+00
   1.470000      0.0000000E+00
   1.480000      0.0000000E+00
   1.490000      0.0000000E+00
   1.500000      0.0000000E+00
   1.510000      0.0000000E+00
   1.520000      0.0000000E+00
   1.530000      0.0000000E+00
   1.540000      0.0000000E+00
   1.550000      0.0000000E+00
   1.560000      0.0000000E+00
   1.570000      0.0000000E+00
   1.580000      0.0000000E+00
   1.590000      0.0000000E+00
   1.600000      0.0000000E+00
   1.610000      0.0000000E+00
   1.620000      0.0000000E+00
   1.630000      0.0000000E+00
   1.640000      0.0000000E+00
   1.650000      0.0000000E+00
   1.660000      0.0000000E+00
   1.670000      0.0000000E+00
   1.680000      0.0000000E+00
   1.690000      0.0000000E+00
   1.700000      0.0000000E+00
   1.710000      0.0000000E+00
   1.720000      0.0000000E+00
   1.730000      0.0000000E+00
   1.740000      0.0000000E+00
   1.750000      0.0000000E+00
   1.760000      0.0000000E+00
   1.770000      0.0000000E+00
   1.780000      0.0000000E+00
   1.790000      0.0000000E+00
   1.800000      0.0000000E+00
   1.810000      0.0000000E+00
   1.820000      0.0000000E+00
   1.830000      0.0000000E+00
   1.840000      0.0000000E+00
   1.850000     -1.6502789E-38
   1.860000     -2.1659206E-38
   1.870000     -2.6412755E-38
   1.880000     -3.0571122E-38
   1.890000     -3.2481605E-38
   1.900000     -3.2481605E-38
   1.910000     -3.2481605E-38
   1.920000     -3.2481605E-38
   1.930000     -3.2481605E-38
   1.940000     -3.4354216E-38
   1.950000     -3.8326687E-38
   1.960000     -4.2574861E-38
   1.970000     -4.6768420E-38
   1.980000     -4.8813671E-38
   1.990000     -4.8813671E-38
   2.000000     -4.8813671E-38
   2.010000     -4.8813671E-38
   2.020000     -4.8813671E-38
   2.030000     -4.8813671E-38
   2.040000     -4.1202617E-38
   2.050000     -2.5993616E-38
   2.060000      0.0000000E+00
   2.070000      0.0000000E+00
   2.080000      3.2314929E-38
   2.090000      5.6138942E-38
   2.100000      8.2019428E-38
   2.110000      1.0949576E-37
   2.120000      1.3717685E-37
   2.130000      1.6631654E-37
   2.140000      1.9626586E-37
   2.150000      2.2471558E-37
   2.160000      2.4968271E-37
   2.170000      2.6870512E-37
   2.180000      2.8598343E-37
   2.190000      3.0468881E-37
   2.200000      3.2567450E-37
   2.210000      3.4993633E-37
   2.220000      3.7602519E-37
   2.230000      3.9948082E-37
   2.240000      4.2248216E-37
   2.250000      4.4883303E-37
   2.260000      4.7499278E-37
   2.270000      4.9947241E-37
   2.280000      5.1995657E-37
   2.290000      5.3088177E-37
   2.300000      5.3697085E-37
   2.310000      5.4113317E-37
   2.320000      5.3724429E-37
   2.330000      5.2640210E-37
   2.340000      5.0860834E-37
   2.350000      5.0026799E-37
   2.360000      5.0416930E-37
   2.370000      5.0437776E-37
   2.380000      5.0305924E-37
   2.390000      5.0070475E-37
   2.400000      4.4066953E-37
   2.410000      3.1865128E-37
   2.420000      1.8404541E-37
   2.430000      3.5818554E-38
   2.440000     -1.3317447E-37
   2.450000     -3.2491966E-37
   2.460000     -5.3439770E-37
   2.470000     -7.3271390E-37
   2.480000     -9.1680560E-37
   2.490000     -1.1087309E-36
   2.500000     -1.3042867E-36
   2.510000     -1.4770919E-36
   2.520000     -1.6207873E-36
   2.530000     -1.7518044E-36
   2.540000     -1.8708573E-36
   2.550000     -1.9851864E-36
   2.560000     -2.0624728E-36
   2.570000     -2.1498894E-36
   2.580000     -2.3012209E-36
   2.590000     -2.7323141E-36
   2.600000     -3.6712883E-36
   2.610000     -4.9003858E-36
   2.620000     -6.2452622E-36
   2.630000     -7.7292197E-36
   2.640000     -8.9799209E-36
   2.650000     -9.9624014E-36
   2.660000     -1.0953720E-35
   2.670000     -1.1958556E-35
   2.680000     -1.2464443E-35
   2.690000     -1.2032986E-35
   2.700000     -1.1134732E-35
   2.710000     -1.0226850E-35
   2.720000     -9.2632973E-36
   2.730000     -8.0690326E-36
   2.740000     -6.6954355E-36
   2.750000     -5.2039405E-36
   2.760000     -3.7617581E-36
   2.770000     -2.4526361E-36
   2.780000     -1.2078013E-36
   2.790000      2.3772968E-37
   2.800000      1.8898127E-36
   2.810000      3.4338174E-36
   2.820000      4.7893948E-36
   2.830000      5.9476495E-36
   2.840000      6.5970689E-36
   2.850000      6.7438866E-36
   2.860000      6.9098871E-36
   2.870000      7.2320066E-36
   2.880000      7.3261050E-36
   2.890000      7.2777937E-36
   2.900000      7.3314199E-36
   2.910000      7.3714136E-36
   2.920000      7.6654292E-36
   2.930000      8.2168461E-36
   2.940000      8.7902462E-36
   2.950000      9.4351365E-36
   2.960000      1.1025857E-35
   2.970000      1.3359579E-35
   2.980000      1.6063664E-35
   2.990000      1.9540160E-35
   3.000000      2.3611925E-35
   3.010000      2.7825688E-35
   3.020000      3.1832390E-35
   3.030000      3.5989083E-35
   3.040000      4.0368390E-35
   3.050000      4.4859760E-35
   3.060000      4.9381192E-35
   3.070000      5.3823998E-35
   3.080000      5.8159288E-35
   3.090000      6.2494836E-35
   3.100000      6.6586210E-35
   3.110000      6.9920516E-35
   3.120000      7.2122393E-35
   3.130000      7.3149877E-35
   3.140000      7.3069963E-35
   3.150000      7.1733079E-35
   3.160000      6.9122294E-35
   3.170000      6.5163019E-35
   3.180000      6.0184002E-35
   3.190000      5.4593998E-35
   3.200000      4.8269219E-35
   3.210000      4.1261729E-35
   3.220000      3.4104036E-35
   3.230000      2.6983479E-35
   3.240000      1.9344522E-35
   3.250000      1.1167810E-35
   3.260000      3.0053252E-36
   3.270000     -6.6941533E-36
   3.280000     -1.8345570E-35
   3.290000     -3.0137790E-35
   3.300000     -4.1905851E-35
   3.310000     -5.3848007E-35
   3.320000     -6.4479946E-35
   3.330000     -7.3886834E-35
   3.340000     -8.1019037E-35
   3.350000     -8.3698797E-35
   3.360000     -8.3927811E-35
   3.370000     -8.3416431E-35
   3.380000     -8.7103316E-35
   3.390000     -9.5310603E-35
   3.400000     -1.0323398E-34
   3.410000     -1.1100781E-34
   3.420000     -1.1903722E-34
   3.430000     -1.2781020E-34
   3.440000     -1.3728496E-34
   3.450000     -1.4702938E-34
   3.460000     -1.5683256E-34
   3.470000     -1.6679625E-34
   3.480000     -1.7584128E-34
   3.490000     -1.8365682E-34
   3.500000     -1.9134649E-34
   3.510000     -1.9856145E-34
   3.520000     -2.0780867E-34
   3.530000     -2.1979295E-34
   3.540000     -2.3198643E-34
   3.550000     -2.4448825E-34
   3.560000     -2.5689639E-34
   3.570000     -2.6977944E-34
   3.580000     -2.8230594E-34
   3.590000     -2.9291753E-34
   3.600000     -3.0119885E-34
   3.610000     -3.0482589E-34
   3.620000     -3.0555332E-34
   3.630000     -3.0225890E-34
   3.640000     -2.9164795E-34
   3.650000     -2.7334424E-34
   3.660000     -2.4945000E-34
   3.670000     -2.2131533E-34
   3.680000     -1.8805749E-34
   3.690000     -1.4956423E-34
   3.700000     -1.0883576E-34
   3.710000     -6.5317308E-35
   3.720000     -1.6525340E-35
   3.730000      3.4353449E-35
   3.740000      8.6107877E-35
   3.750000      1.3736369E-34
   3.760000      1.8698290E-34
   3.770000      2.3529179E-34
   3.780000      2.8251696E-34
   3.790000      3.3005709E-34
   3.800000      3.7915495E-34
   3.810000      4.2739152E-34
   3.820000      4.7286368E-34
   3.830000      5.1647631E-34
   3.840000      5.5874080E-34
   3.850000      6.0016260E-34
   3.860000      6.4387492E-34
   3.870000      6.9095158E-34
   3.880000      7.3763492E-34
   3.890000      7.8415832E-34
   3.900000      8.3290534E-34
   3.910000      8.8386678E-34
   3.920000      9.3732625E-34
   3.930000      9.9459936E-34
   3.940000      1.0550051E-33
   3.950000      1.1173536E-33
   3.960000      1.1796071E-33
   3.970000      1.2416177E-33
   3.980000      1.3040464E-33
   3.990000      1.3651947E-33
   4.000000      1.4268832E-33
   4.010000      1.4871624E-33
   4.020000      1.5428898E-33
   4.030000      1.5943232E-33
   4.040000      1.6415764E-33
   4.050000      1.6808794E-33
   4.060000      1.7107732E-33
   4.070000      1.7311604E-33
   4.080000      1.7409417E-33
   4.090000      1.7399645E-33
   4.100000      1.7274064E-33
   4.110000      1.7014072E-33
   4.120000      1.6603560E-33
   4.130000      1.6052358E-33
   4.140000      1.5362068E-33
   4.150000      1.4514252E-33
   4.160000      1.3481323E-33
   4.170000      1.2303957E-33
   4.180000      1.1032925E-33
   4.190000      9.6373804E-34
   4.200000      8.1044091E-34
   4.210000      6.4394549E-34
   4.220000      4.6487794E-34
   4.230000      2.7679283E-34
   4.240000      7.6850107E-35
   4.250000     -1.3722805E-34
   4.260000     -3.6436723E-34
   4.270000     -6.0487941E-34
   4.280000     -8.5848327E-34
   4.290000     -1.1256709E-33
   4.300000     -1.4071550E-33
   4.310000     -1.7036247E-33
   4.320000     -2.0158373E-33
   4.330000     -2.3446583E-33
   4.340000     -2.6898305E-33
   4.350000     -3.0532450E-33
   4.360000     -3.4366044E-33
   4.370000     -3.8384266E-33
   4.380000     -4.2585655E-33
   4.390000     -4.6976806E-33
   4.400000     -5.1552851E-33
   4.410000     -5.6314610E-33
   4.420000     -6.1233448E-33
   4.430000     -6.6268443E-33
   4.440000     -7.1428892E-33
   4.450000     -7.6698369E-33
   4.460000     -8.2046288E-33
   4.470000     -8.7458910E-33
   4.480000     -9.2915753E-33
   4.490000     -9.8357602E-33
   4.500000     -1.0376028E-32
   4.510000     -1.0911641E-32
   4.520000     -1.1437708E-32
   4.530000     -1.1951618E-32
   4.540000     -1.2449257E-32
   4.550000     -1.2927969E-32
   4.560000     -1.3386668E-32
   4.570000     -1.3819855E-32
   4.580000     -1.4224216E-32
   4.590000     -1.4595953E-32
   4.600000     -1.4931669E-32
   4.610000     -1.5229672E-32
   4.620000     -1.5485448E-32
   4.630000     -1.5695909E-32
   4.640000     -1.5857704E-32
   4.650000     -1.5966563E-32
   4.660000     -1.6018081E-32
   4.670000     -1.6008217E-32
   4.680000     -1.5932239E-32
   4.690000     -1.5785210E-32
   4.700000     -1.5562095E-32
   4.710000     -1.5257464E-32
   4.720000     -1.4866060E-32
   4.730000     -1.4382300E-32
   4.740000     -1.3799814E-32
   4.750000     -1.3110889E-32
   4.760000     -1.2309240E-32
   4.770000     -1.1387215E-32
   4.780000     -1.0339223E-32
   4.790000     -9.1606532E-33
   4.800000     -7.8426566E-33
   4.810000     -6.3786732E-33
   4.820000     -4.7623614E-33
   4.830000     -2.9879274E-33
   4.840000     -1.0502152E-33
   4.850000      1.0563978E-33
   4.860000      3.3372545E-33
   4.870000      5.7965930E-33
   4.880000      8.4378535E-33
   4.890000      1.1264677E-32
   4.900000      1.4279897E-32
   4.910000      1.7485523E-32
   4.920000      2.0882725E-32
   4.930000      2.4472341E-32
   4.940000      2.8254767E-32
   4.950000      3.2229014E-32
   4.960000      3.6393123E-32
   4.970000      4.0745029E-32
   4.980000      4.5282432E-32
   4.990000      5.0001251E-32
   5.000000      5.4896386E-32
   5.010000      5.9962566E-32
   5.020000      6.5192470E-32
   5.030000      7.0577709E-32
   5.040000      7.6109633E-32
   5.050000      8.1777573E-32
   5.060000      8.7569762E-32
   5.070000      9.3473530E-32
   5.080000      9.9473835E-32
   5.090000      1.0555421E-31
   5.100000      1.1169671E-31
   5.110000      1.1788136E-31
   5.120000      1.2408659E-31
   5.130000      1.3028730E-31
   5.140000      1.3645773E-31
   5.150000      1.4257069E-31
   5.160000      1.4859539E-31
   5.170000      1.5449836E-31
   5.180000      1.6024387E-31
   5.190000      1.6579527E-31
   5.200000      1.7111320E-31
   5.210000      1.7615507E-31
   5.220000      1.8087608E-31
   5.230000      1.8522972E-31
   5.240000      1.8916710E-31
   5.250000      1.9263730E-31
   5.260000      1.9558735E-31
   5.270000      1.9796228E-31
   5.280000      1.9970516E-31
   5.290000      2.0075723E-31
   5.300000      2.0105832E-31
   5.310000      2.0054662E-31
   5.320000      1.9915886E-31
   5.330000      1.9683057E-31
   5.340000      1.9349615E-31
   5.350000      1.8908919E-31
   5.360000      1.8354203E-31
   5.370000      1.7678637E-31
   5.380000      1.6875427E-31
   5.390000      1.5937723E-31
   5.400000      1.4858671E-31
   5.410000      1.3631470E-31
   5.420000      1.2249387E-31
   5.430000      1.0705751E-31
   5.440000      8.9939812E-32
   5.450000      7.1077418E-32
   5.460000      5.0408918E-32
   5.470000      2.7874941E-32
   5.480000      3.4192813E-33
   5.490000     -2.3011009E-32
   5.500000     -5.1464436E-32
   5.510000     -8.1985947E-32
   5.520000     -1.1461542E-31
   5.530000     -1.4938635E-31
   5.540000     -1.8632640E-31
   5.550000     -2.2545638E-31
   5.560000     -2.6678970E-31
   5.570000     -3.1033168E-31
   5.580000     -3.5607873E-31
   5.590000     -4.0401802E-31
   5.600000     -4.5412671E-31
   5.610000     -5.0637113E-31
   5.620000     -5.6070648E-31
   5.630000     -6.1707576E-31
   5.640000     -6.7540957E-31
   5.650000     -7.3562535E-31
   5.660000     -7.9762680E-31
   5.670000     -8.6130295E-31
   5.680000     -9.2652813E-31
   5.690000     -9.9316107E-31
   5.700000     -1.0610443E-30
   5.710000     -1.1300038E-30
   5.720000     -1.1998482E-30
   5.730000     -1.2703693E-30
   5.740000     -1.3413399E-30
   5.750000     -1.4125146E-30
   5.760000     -1.4836292E-30
   5.770000     -1.5544002E-30
   5.780000     -1.6245245E-30
   5.790000     -1.6936797E-30
   5.800000     -1.7615227E-30
   5.810000     -1.8276906E-30
   5.820000     -1.8918005E-30
   5.830000     -1.9534493E-30
   5.840000     -2.0122133E-30
   5.850000     -2.0676496E-30
   5.860000     -2.1192954E-30
   5.870000     -2.1666687E-30
   5.880000     -2.2092690E-30
   5.890000     -2.2465773E-30
   5.900000     -2.2780576E-30
   5.910000     -2.3031576E-30
   5.920000     -2.3213091E-30
   5.930000     -2.3319297E-30
   5.940000     -2.3344240E-30
   5.950000     -2.3281851E-30
   5.960000     -2.3125956E-30
   5.970000     -2.2870298E-30
   5.980000     -2.2508552E-30
   5.990000     -2.2034350E-30
   6.000000     -2.1441297E-30
   6.010000     -2.0722991E-30
   6.020000     -1.9873054E-30
   6.030000     -1.8885144E-30
   6.040000     -1.7753000E-30
   6.050000     -1.6470466E-30
   6.060000     -1.5031501E-30
   6.070000     -1.3430234E-30
   6.080000     -1.1660983E-30
   6.090000     -9.7182961E-31
   6.100000     -7.5969792E-31
   6.110000     -5.2921386E-31
   6.120000     -2.7992160E-31
   6.130000     -1.1403416E-32
   6.140000      2.7671699E-31
   6.150000      5.8476993E-31
   6.160000      9.1303561E-31
   6.170000      1.2617390E-30
   6.180000      1.6310462E-30
   6.190000      2.0210600E-30
   6.200000      2.4318136E-30
   6.210000      2.8632665E-30
   6.220000      3.3153007E-30
   6.230000      3.7877144E-30
   6.240000      4.2802168E-30
   6.250000      4.7924254E-30
   6.260000      5.3238602E-30
   6.270000      5.8739362E-30
   6.280000      6.4419633E-30
   6.290000      7.0271368E-30
   6.300000      7.6285378E-30
   6.310000      8.2451228E-30
   6.320000      8.8757249E-30
   6.330000      9.5190479E-30
   6.340000      1.0173660E-29
   6.350000      1.0837993E-29
   6.360000      1.1510336E-29
   6.370000      1.2188835E-29
   6.380000      1.2871492E-29
   6.390000      1.3556154E-29
   6.400000      1.4240520E-29
   6.410000      1.4922134E-29
   6.420000      1.5598383E-29
   6.430000      1.6266501E-29
   6.440000      1.6923562E-29
   6.450000      1.7566484E-29
   6.460000      1.8192033E-29
   6.470000      1.8796813E-29
   6.480000      1.9377276E-29
   6.490000      1.9929729E-29
   6.500000      2.0450325E-29
   6.510000      2.0935071E-29
   6.520000      2.1379840E-29
   6.530000      2.1780367E-29
   6.540000      2.2132260E-29
   6.550000      2.2431005E-29
   6.560000      2.2671978E-29
   6.570000      2.2850444E-29
   6.580000      2.2961579E-29
   6.590000      2.3000476E-29
   6.600000      2.2962153E-29
   6.610000      2.2841570E-29
   6.620000      2.2633642E-29
   6.630000      2.2333258E-29
   6.640000      2.1935290E-29
   6.650000      2.1434613E-29
   6.660000      2.0826128E-29
   6.670000      2.0104769E-29
   6.680000      1.9265536E-29
   6.690000      1.8303510E-29
   6.700000      1.7213879E-29
   6.710000      1.5991955E-29
   6.720000      1.4633204E-29
   6.730000      1.3133267E-29
   6.740000      1.1487990E-29
   6.750000      9.6934544E-30
   6.760000      7.7459985E-30
   6.770000      5.6422503E-30
   6.780000      3.3791532E-30
   6.790000      9.5400056E-31
   6.800000     -1.6355311E-30
   6.810000     -4.3913546E-30
   6.820000     -7.3149355E-30
   6.830000     -1.0407264E-29
   6.840000     -1.3668820E-29
   6.850000     -1.7099535E-29
   6.860000     -2.0698761E-29
   6.870000     -2.4465236E-29
   6.880000     -2.8397049E-29
   6.890000     -3.2491609E-29
   6.900000     -3.6745612E-29
   6.910000     -4.1155004E-29
   6.920000     -4.5714950E-29
   6.930000     -5.0419790E-29
   6.940000     -5.5263031E-29
   6.950000     -6.0237299E-29
   6.960000     -6.5334327E-29
   6.970000     -7.0544918E-29
   6.980000     -7.5858908E-29
   6.990000     -8.1265150E-29
   7.000000     -8.6751528E-29
   7.010000     -9.2304875E-29
   7.020000     -9.7910974E-29
   7.030000     -1.0355459E-28
   7.040000     -1.0921940E-28
   7.050000     -1.1488800E-28
   7.060000     -1.2054192E-28