  -2.600000      0.0000000E+00
  -2.590000      0.0000000E+00
  -2.580000      0.0000000E+00
  -2.570000      0.0000000E+00
  -2.560000      0.0000000E+00
  -2.550000      0.0000000E+00
  -2.540000      0.0000000E+00
  -2.530000      0.0000000E+00
  -2.520000      0.0000000E+00
  -2.510000      0.0000000E+00
  -2.500000      0.0000000E+00
  -2.490000      0.0000000E+00
  -2.480000      0.0000000E+00
  -2.470000      0.0000000E+00
  -2.460000      0.0000000E+00
  -2.450000      0.0000000E+00
  -2.440000      0.0000000E+00
  -2.430000      0.0000000E+00
  -2.420000      0.0000000E+00
  -2.410000      0.0000000E+00
  -2.400000      0.0000000E+00
  -2.390000      0.0000000E+00
  -2.380000      0.0000000E+00
  -2.370000      0.0000000E+00
  -2.360000      0.0000000E+00
  -2.350000      0.0000000E+00
  -2.340000      0.0000000E+00
  -2.330000      0.0000000E+00
  -2.320000      0.0000000E+00
  -2.310000      0.0000000E+00
  -2.300000      0.0000000E+00
  -2.290000      0.0000000E+00
  -2.280000      0.0000000E+00
  -2.270000      0.0000000E+00
  -2.260000      0.0000000E+00
  -2.250000      0.0000000E+00
  -2.240000      0.0000000E+00
  -2.230000      0.0000000E+00
  -2.220000      0.0000000E+00
  -2.210000      0.0000000E+00
  -2.200000      0.0000000E+00
  -2.190000      0.0000000E+00
  -2.180000      0.0000000E+00
  -2.170000      0.0000000E+00
  -2.160000      0.0000000E+00
  -2.150000      0.0000000E+00
  -2.140000      0.0000000E+00
  -2.130000      0.0000000E+00
  -2.120000      0.0000000E+00
  -2.110000      0.0000000E+00
  -2.100000      0.0000000E+00
  -2.090000      0.0000000E+00
  -2.080000      0.0000000E+00
  -2.070000      0.0000000E+00
  -2.060000      0.0000000E+00
  -2.050000      0.0000000E+00
  -2.040000      0.0000000E+00
  -2.030000      0.0000000E+00
  -2.020000      0.0000000E+00
  -2.010000      0.0000000E+00
  -2.000000      0.0000000E+00
  -1.990000      0.0000000E+00
  -1.980000      0.0000000E+00
  -1.970000      0.0000000E+00
  -1.960000      0.0000000E+00
  -1.950000      0.0000000E+00
  -1.940000      0.0000000E+00
  -1.930000      0.0000000E+00
  -1.920000      0.0000000E+00
  -1.910000      0.0000000E+00
  -1.900000      0.0000000E+00
  -1.890000      0.0000000E+00
  -1.880000      0.0000000E+00
  -1.870000      0.0000000E+00
  -1.860000      0.0000000E+00
  -1.850000      0.0000000E+00
  -1.840000      0.0000000E+00
  -1.830000      0.0000000E+00
  -1.820000      0.0000000E+00
  -1.810000      0.0000000E+00
  -1.800000      0.0000000E+00
  -1.790000      0.0000000E+00
  -1.780000      0.0000000E+00
  -1.770000      0.0000000E+00
  -1.760000      0.0000000E+00
  -1.750000      0.0000000E+00
  -1.740000      0.0000000E+00
  -1.730000      0.0000000E+00
  -1.720000      0.0000000E+00
  -1.710000      0.0000000E+00
  -1.700000      0.0000000E+00
  -1.690000      0.0000000E+00
  -1.680000      0.0000000E+00
  -1.670000      0.0000000E+00
  -1.660000      0.0000000E+00
  -1.650000      0.0000000E+00
  -1.640000      0.0000000E+00
  -1.630000      0.0000000E+00
  -1.620000      0.0000000E+00
  -1.610000      0.0000000E+00
  -1.600000      0.0000000E+00
  -1.590000      0.0000000E+00
  -1.580000      0.0000000E+00
  -1.570000      0.0000000E+00
  -1.560000      0.0000000E+00
  -1.550000      0.0000000E+00
  -1.540000      0.0000000E+00
  -1.530000      0.0000000E+00
  -1.520000      0.0000000E+00
  -1.510000      0.0000000E+00
  -1.500000      0.0000000E+00
  -1.490000      0.0000000E+00
  -1.480000      0.0000000E+00
  -1.470000      0.0000000E+00
  -1.460000      0.0000000E+00
  -1.450000      0.0000000E+00
  -1.440000      0.0000000E+00
  -1.430000      0.0000000E+00
  -1.420000      0.0000000E+00
  -1.410000      0.0000000E+00
  -1.400000      0.0000000E+00
  -1.390000      0.0000000E+00
  -1.380000      0.0000000E+00
  -1.370000      0.0000000E+00
  -1.360000      0.0000000E+00
  -1.350000      0.0000000E+00
  -1.340000      0.0000000E+00
  -1.330000      0.0000000E+00
  -1.320000      0.0000000E+00
  -1.310000      0.0000000E+00
  -1.300000      0.0000000E+00
  -1.290000      0.0000000E+00
  -1.280000      0.0000000E+00
  -1.270000      0.0000000E+00
  -1.260000      0.0000000E+00
  -1.250000      0.0000000E+00
  -1.240000      0.0000000E+00
  -1.230000      0.0000000E+00
  -1.220000      0.0000000E+00
  -1.210000      0.0000000E+00
  -1.200000      0.0000000E+00
  -1.190000      0.0000000E+00
  -1.180000      0.0000000E+00
  -1.170000      0.0000000E+00
  -1.160000      0.0000000E+00
  -1.150000      0.0000000E+00
  -1.140000      0.0000000E+00
  -1.130000      0.0000000E+00
  -1.120000      0.0000000E+00
  -1.110000      0.0000000E+00
  -1.100000      0.0000000E+00
  -1.090000      0.0000000E+00
  -1.080000      0.0000000E+00
  -1.070000      0.0000000E+00
  -1.060000      0.0000000E+00
  -1.050000      0.0000000E+00
  -1.040000      0.0000000E+00
  -1.030000      0.0000000E+00
  -1.020000      0.0000000E+00
  -1.010000      0.0000000E+00
  -1.000000      0.0000000E+00
 -0.9900000      0.0000000E+00
 -0.9800000      0.0000000E+00
 -0.9700000      0.0000000E+00
 -0.9600000      0.0000000E+00
 -0.9500000      0.0000000E+00
 -0.9400000      0.0000000E+00
 -0.9300000      0.0000000E+00
 -0.9200000      0.0000000E+00
 -0.9100000      0.0000000E+00
 -0.9000000      0.0000000E+00
 -0.8900000      0.0000000E+00
 -0.8800000      0.0000000E+00
 -0.8700000      0.0000000E+00
 -0.8600000      0.0000000E+00
 -0.8500000      0.0000000E+00
 -0.8400000      0.0000000E+00
 -0.8300000      0.0000000E+00
 -0.8200000      0.0000000E+00
 -0.8100000      0.0000000E+00
 -0.8000000      0.0000000E+00
 -0.7900000      0.0000000E+00
 -0.7800000      0.0000000E+00
 -0.7700000      0.0000000E+00
 -0.7600000      0.0000000E+00
 -0.7500000      0.0000000E+00
 -0.7400000      0.0000000E+00
 -0.7300000      0.0000000E+00
 -0.7200000      0.0000000E+00
 -0.7100000      0.0000000E+00
 -0.7000000      0.0000000E+00
 -0.6900000      0.0000000E+00
 -0.6800000      0.0000000E+00
 -0.6700000      0.0000000E+00
 -0.6600000      0.0000000E+00
 -0.6500000      0.0000000E+00
 -0.6400000      0.0000000E+00
 -0.6300000      0.0000000E+00
 -0.6200000      0.0000000E+00
 -0.6100000      0.0000000E+00
 -0.6000000      0.0000000E+00
 -0.5900000      0.0000000E+00
 -0.5800000      0.0000000E+00
 -0.5700000      0.0000000E+00
 -0.5600000      0.0000000E+00
 -0.5500000      0.0000000E+00
 -0.5400000      0.0000000E+00
 -0.5300000      0.0000000E+00
 -0.5200000      0.0000000E+00
 -0.5100000      0.0000000E+00
 -0.5000000      0.0000000E+00
 -0.4900000      0.0000000E+00
 -0.4800000      0.0000000E+00
 -0.4700000      0.0000000E+00
 -0.4600000      0.0000000E+00
 -0.4500000      0.0000000E+00
 -0.4400000      0.0000000E+00
 -0.4300000      0.0000000E+00
 -0.4200000      0.0000000E+00
 -0.4100000      0.0000000E+00
 -0.4000000      0.0000000E+00
 -0.3900000      0.0000000E+00
 -0.3800000      0.0000000E+00
 -0.3700000      0.0000000E+00
 -0.3600000      0.0000000E+00
 -0.3500000      0.0000000E+00
 -0.3400000      0.0000000E+00
 -0.3300000      0.0000000E+00
 -0.3200000      0.0000000E+00
 -0.3100000      0.0000000E+00
 -0.3000000      0.0000000E+00
 -0.2900000      0.0000000E+00
 -0.2800000      0.0000000E+00
 -0.2700000      0.0000000E+00
 -0.2600000      0.0000000E+00
 -0.2500000      0.0000000E+00
 -0.2400000      0.0000000E+00
 -0.2300000      0.0000000E+00
 -0.2200000      0.0000000E+00
 -0.2100000      0.0000000E+00
 -0.2000000      0.0000000E+00
 -0.1900000      0.0000000E+00
 -0.1800000      0.0000000E+00
 -0.1700000      0.0000000E+00
 -0.1600000      0.0000000E+00
 -0.1500000      0.0000000E+00
 -0.1400000      0.0000000E+00
 -0.1300000      0.0000000E+00
 -0.1200000      0.0000000E+00
 -0.1100000      0.0000000E+00
 -0.1000000      0.0000000E+00
 -9.0000004E-02  0.0000000E+00
 -7.9999998E-02  0.0000000E+00
 -7.0000000E-02  0.0000000E+00
 -5.9999999E-02  0.0000000E+00
 -5.0000001E-02  0.0000000E+00
 -3.9999999E-02  0.0000000E+00
 -2.9999999E-02  0.0000000E+00
 -2.0000000E-02  0.0000000E+00
 -9.9999998E-03  0.0000000E+00
 -3.4694470E-17  0.0000000E+00
  9.9999998E-03  0.0000000E+00
  2.0000000E-02  0.0000000E+00
  2.9999999E-02  0.0000000E+00
  3.9999999E-02  0.0000000E+00
  5.0000001E-02  0.0000000E+00
  5.9999999E-02  0.0000000E+00
  7.0000000E-02  0.0000000E+00
  7.9999998E-02  0.0000000E+00
  9.0000004E-02  0.0000000E+00
  0.1000000      0.0000000E+00
  0.1100000      0.0000000E+00
  0.1200000      0.0000000E+00
  0.1300000      0.0000000E+00
  0.1400000      0.0000000E+00
  0.1500000      0.0000000E+00
  0.1600000      0.0000000E+00
  0.1700000      0.0000000E+00
  0.1800000      0.0000000E+00
  0.1900000      0.0000000E+00
  0.2000000      0.0000000E+00
  0.2100000      0.0000000E+00
  0.2200000      0.0000000E+00
  0.2300000      0.0000000E+00
  0.2400000      0.0000000E+00
  0.2500000      0.0000000E+00
  0.2600000      0.0000000E+00
  0.2700000      0.0000000E+00
  0.2800000      0.0000000E+00
  0.2900000      0.0000000E+00
  0.3000000      0.0000000E+00
  0.3100000      0.0000000E+00
  0.3200000      0.0000000E+00
  0.3300000      0.0000000E+00
  0.3400000      0.0000000E+00
  0.3500000      0.0000000E+00
  0.3600000      0.0000000E+00
  0.3700000      0.0000000E+00
  0.3800000      0.0000000E+00
  0.3900000      0.0000000E+00
  0.4000000      0.0000000E+00
  0.4100000      0.0000000E+00
  0.4200000      0.0000000E+00
  0.4300000      0.0000000E+00
  0.4400000      0.0000000E+00
  0.4500000      0.0000000E+00
  0.4600000      0.0000000E+00
  0.4700000      0.0000000E+00
  0.4800000      0.0000000E+00
  0.4900000      0.0000000E+00
  0.5000000      0.0000000E+00
  0.5100000      0.0000000E+00
  0.5200000      0.0000000E+00
  0.5300000      0.0000000E+00
  0.5400000      0.0000000E+00
  0.5500000      0.0000000E+00
  0.5600000      0.0000000E+00
  0.5700000      0.0000000E+00
  0.5800000      0.0000000E+00
  0.5900000      0.0000000E+00
  0.6000000      0.0000000E+00
  0.6100000      0.0000000E+00
  0.6200000      0.0000000E+00
  0.6300000      0.0000000E+00
  0.6400000      0.0000000E+00
  0.6500000      0.0000000E+00
  0.6600000      0.0000000E+00
  0.6700000      0.0000000E+00
  0.6800000      0.0000000E+00
  0.6900000      0.0000000E+00
  0.7000000      0.0000000E+00
  0.7100000      0.0000000E+00
  0.7200000      0.0000000E+00
  0.7300000      0.0000000E+00
  0.7400000      0.0000000E+00
  0.7500000      0.0000000E+00
  0.7600000      0.0000000E+00
  0.7700000      0.0000000E+00
  0.7800000      0.0000000E+00
  0.7900000      0.0000000E+00
  0.8000000      0.0000000E+00
  0.8100000      0.0000000E+00
  0.8200000      0.0000000E+00
  0.8300000      0.0000000E+00
  0.8400000      0.0000000E+00
  0.8500000      0.0000000E+00
  0.8600000      0.0000000E+00
  0.8700000      0.0000000E+00
  0.8800000      0.0000000E+00
  0.8900000      0.0000000E+00
  0.9000000      0.0000000E+00
  0.9100000      0.0000000E+00
  0.9200000      0.0000000E+00
  0.9300000      0.0000000E+00
  0.9400000      0.0000000E+00
  0.9500000      0.0000000E+00
  0.9600000      0.0000000E+00
  0.9700000      0.0000000E+00
  0.9800000      0.0000000E+00
  0.9900000      0.0000000E+00
   1.000000      0.0000000E+00
   1.010000      0.0000000E+00
   1.020000      0.0000000E+00
   1.030000      0.0000000E+00
   1.040000      0.0000000E+00
   1.050000      0.0000000E+00
   1.060000      0.0000000E+00
   1.070000      0.0000000E+00
   1.080000      0.0000000E+00
   1.090000      0.0000000E+00
   1.100000      0.0000000E+00
   1.110000      0.0000000E+00
   1.120000      0.0000000E+00
   1.130000      0.0000000E+00
   1.140000      0.0000000E+00
   1.150000      0.0000000E+00
   1.160000      0.0000000E+00
   1.170000      0.0000000E+00
   1.180000      0.0000000E+00
   1.190000      0.0000000E+00
   1.200000      0.0000000E+00
   1.210000      0.0000000E+00
   1.220000      0.0000000E+00
   1.230000      0.0000000E+00
   1.240000      0.0000000E+00
   1.250000      0.0000000E+00
   1.260000      0.0000000E+00
   1.270000      0.0000000E+00
   1.280000      0.0000000E+00
   1.290000      0.0000000E+00
   1.300000      0.0000000E+00
   1.310000      0.0000000E+00
   1.320000      0.0000000E+00
   1.330000      0.0000000E+00
   1.340000      0.0000000E+00
   1.350000      0.0000000E+00
   1.360000      0.0000000E+00
   1.370000      0.0000000E+00
   1.380000      0.0000000E+00
   1.390000      0.0000000E+00
   1.400000      0.0000000E+00
   1.410000      0.0000000E+00
   1.420000      0.0000000E+00
   1.430000      0.0000000E+00
   1.440000      0.0000000E+00
   1.450000      0.0000000E+00
   1.460000      0.0000000E+00
   1.470000      0.0000000E+00
   1.480000      0.0000000E+00
   1.490000      0.0000000E+00
   1.500000      0.0000000E+00
   1.510000      0.0000000E+00
   1.520000      0.0000000E+00
   1.530000      0.0000000E+00
   1.540000      0.0000000E+00
   1.550000      0.0000000E+00
   1.560000      0.0000000E+00
   1.570000      0.0000000E+00
   1.580000      0.0000000E+00
   1.590000      0.0000000E+00
   1.600000      0.0000000E+00
   1.610000      0.0000000E+00
   1.620000      0.0000000E+00
   1.630000      0.0000000E+00
   1.640000      0.0000000E+00
   1.650000      0.0000000E+00
   1.660000      0.0000000E+00
   1.670000      0.0000000E+00
   1.680000      0.0000000E+00
   1.690000      0.0000000E+00
   1.700000      0.0000000E+00
   1.710000      0.0000000E+00
   1.720000      0.0000000E+00
   1.730000      0.0000000E+00
   1.740000      0.0000000E+00
   1.750000      0.0000000E+00
   1.760000      0.0000000E+00
   1.770000      0.0000000E+00
   1.780000      0.0000000E+00
   1.790000      0.0000000E+00
   1.800000      0.0000000E+00
   1.810000      0.0000000E+00
   1.820000      0.0000000E+00
   1.830000      0.0000000E+00
   1.840000      0.0000000E+00
   1.850000      0.0000000E+00
   1.860000      0.0000000E+00
   1.870000      0.0000000E+00
   1.880000      0.0000000E+00
   1.890000      0.0000000E+00
   1.900000      0.0000000E+00
   1.910000      0.0000000E+00
   1.920000      0.0000000E+00
   1.930000      0.0000000E+00
   1.940000      0.0000000E+00
   1.950000      0.0000000E+00
   1.960000      0.0000000E+00
   1.970000      0.0000000E+00
   1.980000      0.0000000E+00
   1.990000      0.0000000E+00
   2.000000      0.0000000E+00
   2.010000      0.0000000E+00
   2.020000      0.0000000E+00
   2.030000      0.0000000E+00
   2.040000      0.0000000E+00
   2.050000     -1.7054985E-38
   2.060000     -2.3602227E-38
   2.070000     -3.0916363E-38
   2.080000     -4.2174857E-38
   2.090000     -5.8074640E-38
   2.100000     -7.6159479E-38
   2.110000     -9.6469366E-38
   2.120000     -1.1902013E-37
   2.130000     -1.4381120E-37
   2.140000     -1.7081863E-37
   2.150000     -1.9998083E-37
   2.160000     -2.3119952E-37
   2.170000     -2.5549469E-37
   2.180000     -2.7063990E-37
   2.190000     -2.8358882E-37
   2.200000     -2.9490730E-37
   2.210000     -3.0524525E-37
   2.220000     -3.1452393E-37
   2.230000     -3.2351574E-37
   2.240000     -3.3362894E-37
   2.250000     -3.4513362E-37
   2.260000     -3.5962704E-37
   2.270000     -3.7679705E-37
   2.280000     -3.9915061E-37
   2.290000     -4.1843494E-37
   2.300000     -4.2630714E-37
   2.310000     -4.2149188E-37
   2.320000     -4.0165667E-37
   2.330000     -3.6967173E-37
   2.340000     -3.2248864E-37
   2.350000     -2.6271768E-37
   2.360000     -1.9002080E-37
   2.370000     -1.0458766E-37
   2.380000     -1.2237087E-38
   2.390000      6.9513154E-38
   2.400000      1.4540131E-37
   2.410000      2.3115911E-37
   2.420000      3.1624542E-37
   2.430000      3.9765348E-37
   2.440000      4.7912412E-37
   2.450000      5.6731889E-37
   2.460000      6.6817534E-37
   2.470000      7.9348945E-37
   2.480000      9.4035530E-37
   2.490000      1.0959802E-36
   2.500000      1.2595631E-36
   2.510000      1.4211643E-36
   2.520000      1.5797411E-36
   2.530000      1.7261805E-36
   2.540000      1.8478954E-36
   2.550000      1.9417990E-36
   2.560000      2.0038891E-36
   2.570000      2.0585529E-36
   2.580000      2.1062853E-36
   2.590000      2.1262290E-36
   2.600000      2.1288085E-36
   2.610000      2.1134621E-36
   2.620000      2.0675553E-36
   2.630000      2.0365456E-36
   2.640000      2.0297673E-36
   2.650000      1.9947540E-36
   2.660000      1.9262499E-36
   2.670000      1.8376051E-36
   2.680000      1.5670206E-36
   2.690000      1.0752754E-36
   2.700000      4.8724219E-37
   2.710000     -1.7723334E-37
   2.720000     -9.0081106E-37
   2.730000     -1.6894304E-36
   2.740000     -2.5415868E-36
   2.750000     -3.4195367E-36
   2.760000     -4.2402131E-36
   2.770000     -5.0029173E-36
   2.780000     -5.5914429E-36
   2.790000     -5.9847762E-36
   2.800000     -6.0343038E-36
   2.810000     -5.7474492E-36
   2.820000     -5.4297116E-36
   2.830000     -5.0856209E-36
   2.840000     -4.6904495E-36
   2.850000     -4.2441570E-36
   2.860000     -3.8290663E-36
   2.870000     -3.5323691E-36
   2.880000     -3.3391939E-36
   2.890000     -3.2132203E-36
   2.900000     -3.2375761E-36
   2.910000     -3.5644093E-36
   2.920000     -3.7752866E-36
   2.930000     -3.4929419E-36
   2.940000     -2.8956867E-36
   2.950000     -1.8116073E-36
   2.960000     -1.8234663E-37
   2.970000      2.0506282E-36
   2.980000      4.6147251E-36
   2.990000      7.2386173E-36
   3.000000      9.9796034E-36
   3.010000      1.2322079E-35
   3.020000      1.3775960E-35
   3.030000      1.4380978E-35
   3.040000      1.4551854E-35
   3.050000      1.4539610E-35
   3.060000      1.4358211E-35
   3.070000      1.4101402E-35
   3.080000      1.3909421E-35
   3.090000      1.3877014E-35
   3.100000      1.4028183E-35
   3.110000      1.4285677E-35
   3.120000      1.4821974E-35
   3.130000      1.5233609E-35
   3.140000      1.5571348E-35
   3.150000      1.5822262E-35
   3.160000      1.6015118E-35
   3.170000      1.6725576E-35
   3.180000      1.7545133E-35
   3.190000      1.8087926E-35
   3.200000      1.8163969E-35
   3.210000      1.7933585E-35
   3.220000      1.7435735E-35
   3.230000      1.7208625E-35
   3.240000      1.7045337E-35
   3.250000      1.6522579E-35
   3.260000      1.6166056E-35
   3.270000      1.5545751E-35
   3.280000      1.4443871E-35
   3.290000      1.2998339E-35
   3.300000      1.1070865E-35
   3.310000      8.0493038E-36
   3.320000      3.8156106E-36
   3.330000     -1.6814211E-36
   3.340000     -8.4536590E-36
   3.350000     -1.6867031E-35
   3.360000     -2.7396698E-35
   3.370000     -3.8899866E-35
   3.380000     -5.0727540E-35
   3.390000     -6.2274431E-35
   3.400000     -7.2860170E-35
   3.410000     -8.2740751E-35
   3.420000     -9.1882757E-35
   3.430000     -9.9585746E-35
   3.440000     -1.0555317E-34
   3.450000     -1.0981589E-34
   3.460000     -1.1295383E-34
   3.470000     -1.1455164E-34
   3.480000     -1.1432267E-34
   3.490000     -1.1260934E-34
   3.500000     -1.0977708E-34
   3.510000     -1.0885427E-34
   3.520000     -1.1003511E-34
   3.530000     -1.1035934E-34
   3.540000     -1.1067029E-34
   3.550000     -1.1178416E-34
   3.560000     -1.1304326E-34
   3.570000     -1.1517664E-34
   3.580000     -1.1784762E-34
   3.590000     -1.2012838E-34
   3.600000     -1.2177040E-34
   3.610000     -1.2217449E-34
   3.620000     -1.2144192E-34
   3.630000     -1.2013638E-34
   3.640000     -1.1685409E-34
   3.650000     -1.1189274E-34
   3.660000     -1.0667069E-34
   3.670000     -1.0123378E-34
   3.680000     -9.6421129E-35
   3.690000     -8.9464068E-35
   3.700000     -7.9966717E-35
   3.710000     -6.9080084E-35
   3.720000     -5.5937368E-35
   3.730000     -4.0530532E-35
   3.740000     -2.1546186E-35
   3.750000      6.7670483E-37
   3.760000      2.5407065E-35
   3.770000      5.2596157E-35
   3.780000      8.2045298E-35
   3.790000      1.1339608E-34
   3.800000      1.4647836E-34
   3.810000      1.8042161E-34
   3.820000      2.1452735E-34
   3.830000      2.4897221E-34
   3.840000      2.8297297E-34
   3.850000      3.1349314E-34
   3.860000      3.4018393E-34
   3.870000      3.6519737E-34
   3.880000      3.8796305E-34
   3.890000      4.1087137E-34
   3.900000      4.3624832E-34
   3.910000      4.6179994E-34
   3.920000      4.8499157E-34
   3.930000      5.0842753E-34
   3.940000      5.3301106E-34
   3.950000      5.5838085E-34
   3.960000      5.8607618E-34
   3.970000      6.1587680E-34
   3.980000      6.4821277E-34
   3.990000      6.8155741E-34
   4.000000      7.1349674E-34
   4.010000      7.4213743E-34
   4.020000      7.6786753E-34
   4.030000      7.9121900E-34
   4.040000      8.1176113E-34
   4.050000      8.2826094E-34
   4.060000      8.3950151E-34
   4.070000      8.4534363E-34
   4.080000      8.4644979E-34
   4.090000      8.4277775E-34
   4.100000      8.3327681E-34
   4.110000      8.2185092E-34
   4.120000      8.1029875E-34
   4.130000      7.9847943E-34
   4.140000      7.8382909E-34
   4.150000      7.6189547E-34
   4.160000      7.3289258E-34
   4.170000      6.9523465E-34
   4.180000      6.4878022E-34
   4.190000      5.9481249E-34
   4.200000      5.3287863E-34
   4.210000      4.6259147E-34
   4.220000      3.8396488E-34
   4.230000      2.9486947E-34
   4.240000      1.9668732E-34
   4.250000      9.0776501E-35
   4.260000     -2.4476737E-35
   4.270000     -1.4878384E-34
   4.280000     -2.8226969E-34
   4.290000     -4.2321277E-34
   4.300000     -5.7141956E-34
   4.310000     -7.2695721E-34
   4.320000     -8.8923484E-34
   4.330000     -1.0590897E-33
   4.340000     -1.2354889E-33
   4.350000     -1.4180297E-33
   4.360000     -1.6075640E-33
   4.370000     -1.8052401E-33
   4.380000     -2.0105622E-33
   4.390000     -2.2206563E-33
   4.400000     -2.4344381E-33
   4.410000     -2.6543829E-33
   4.420000     -2.8828130E-33
   4.430000     -3.1177376E-33
   4.440000     -3.3577328E-33
   4.450000     -3.5989681E-33
   4.460000     -3.8416470E-33
   4.470000     -4.0873647E-33
   4.480000     -4.3332237E-33
   4.490000     -4.5785454E-33
   4.500000     -4.8214051E-33
   4.510000     -5.0614421E-33
   4.520000     -5.2980151E-33
   4.530000     -5.5290200E-33
   4.540000     -5.7526941E-33
   4.550000     -5.9656651E-33
   4.560000     -6.1639375E-33
   4.570000     -6.3476842E-33
   4.580000     -6.5168393E-33
   4.590000     -6.6673151E-33
   4.600000     -6.7976458E-33
   4.610000     -6.9080416E-33
   4.620000     -6.9976995E-33
   4.630000     -7.0632847E-33
   4.640000     -7.0991013E-33
   4.650000     -7.1033948E-33
   4.660000     -7.0757024E-33
   4.670000     -7.0130404E-33
   4.680000     -6.9133064E-33
   4.690000     -6.7745877E-33
   4.700000     -6.5940862E-33
   4.710000     -6.3697952E-33
   4.720000     -6.0999829E-33
   4.730000     -5.7809931E-33
   4.740000     -5.4094296E-33
   4.750000     -4.9838209E-33
   4.760000     -4.5015453E-33
   4.770000     -3.9597457E-33
   4.780000     -3.3564147E-33
   4.790000     -2.6885216E-33
   4.800000     -1.9538867E-33
   4.810000     -1.1510530E-33
   4.820000     -2.7691437E-34
   4.830000      6.7019474E-34
   4.840000      1.6913147E-33
   4.850000      2.7874744E-33
   4.860000      3.9593386E-33
   4.870000      5.2078062E-33
   4.880000      6.5332499E-33
   4.890000      7.9361650E-33
   4.900000      9.4160484E-33
   4.910000      1.0971922E-32
   4.920000      1.2603421E-32
   4.930000      1.4309616E-32
   4.940000      1.6088456E-32
   4.950000      1.7938302E-32
   4.960000      1.9857056E-32
   4.970000      2.1841743E-32
   4.980000      2.3888703E-32
   4.990000      2.5994770E-32
   5.000000      2.8156722E-32
   5.010000      3.0369202E-32
   5.020000      3.2627245E-32
   5.030000      3.4925668E-32
   5.040000      3.7258046E-32
   5.050000      3.9617636E-32
   5.060000      4.1996719E-32
   5.070000      4.4387152E-32
   5.080000      4.6779826E-32
   5.090000      4.9164825E-32
   5.100000      5.1532144E-32
   5.110000      5.3870302E-32
   5.120000      5.6166766E-32
   5.130000      5.8408316E-32
   5.140000      6.0580647E-32
   5.150000      6.2668413E-32
   5.160000      6.4654975E-32
   5.170000      6.6524628E-32
   5.180000      6.8259917E-32
   5.190000      6.9840939E-32
   5.200000      7.1248564E-32
   5.210000      7.2462814E-32
   5.220000      7.3461808E-32
   5.230000      7.4223658E-32
   5.240000      7.4725923E-32
   5.250000      7.4944906E-32
   5.260000      7.4856773E-32
   5.270000      7.4437163E-32
   5.280000      7.3660561E-32
   5.290000      7.2501712E-32
   5.300000      7.0934778E-32
   5.310000      6.8932646E-32
   5.320000      6.6469768E-32
   5.330000      6.3520124E-32
   5.340000      6.0056735E-32
   5.350000      5.6053201E-32
   5.360000      5.1483208E-32
   5.370000      4.6320957E-32
   5.380000      4.0541169E-32
   5.390000      3.4118647E-32
   5.400000      2.7028873E-32
   5.410000      1.9248257E-32
   5.420000      1.0754324E-32
   5.430000      1.5257853E-33
   5.440000     -8.4577788E-33
   5.450000     -1.9215279E-32
   5.460000     -3.0763698E-32
   5.470000     -4.3118302E-32
   5.480000     -5.6291979E-32
   5.490000     -7.0295256E-32
   5.500000     -8.5136189E-32
   5.510000     -1.0081971E-31
   5.520000     -1.1734759E-31
   5.530000     -1.3471797E-31
   5.540000     -1.5292519E-31
   5.550000     -1.7195958E-31
   5.560000     -1.9180700E-31
   5.570000     -2.1244860E-31
   5.580000     -2.3386058E-31
   5.590000     -2.5601395E-31
   5.600000     -2.7887428E-31
   5.610000     -3.0240138E-31
   5.620000     -3.2654873E-31
   5.630000     -3.5126369E-31
   5.640000     -3.7648707E-31
   5.650000     -4.0215284E-31
   5.660000     -4.2818792E-31
   5.670000     -4.5451208E-31
   5.680000     -4.8103749E-31
   5.690000     -5.0766879E-31
   5.700000     -5.3430276E-31
   5.710000     -5.6082831E-31
   5.720000     -5.8712619E-31
   5.730000     -6.1306906E-31
   5.740000     -6.3852138E-31
   5.750000     -6.6333927E-31
   5.760000     -6.8737051E-31
   5.770000     -7.1045459E-31
   5.780000     -7.3242279E-31
   5.790000     -7.5309809E-31
   5.800000     -7.7229527E-31
   5.810000     -7.8982114E-31
   5.820000     -8.0547468E-31
   5.830000     -8.1904713E-31
   5.840000     -8.3032219E-31
   5.850000     -8.3907661E-31
   5.860000     -8.4508038E-31
   5.870000     -8.4809707E-31
   5.880000     -8.4788426E-31
   5.890000     -8.4419434E-31
   5.900000     -8.3677490E-31
   5.910000     -8.2536978E-31
   5.920000     -8.0971935E-31
   5.930000     -7.8956178E-31
   5.940000     -7.6463359E-31
   5.950000     -7.3467085E-31
   5.960000     -6.9941035E-31
   5.970000     -6.5859051E-31
   5.980000     -6.1195272E-31
   5.990000     -5.5924257E-31
   6.000000     -5.0021107E-31
   6.010000     -4.3461623E-31
   6.020000     -3.6222445E-31
   6.030000     -2.8281214E-31
   6.040000     -1.9616738E-31
   6.050000     -1.0209156E-31
   6.060000     -4.0104850E-34
   6.070000      1.0907088E-31
   6.080000      2.2647213E-31
   6.090000      3.5193013E-31
   6.100000      4.8554941E-31
   6.110000      6.2741019E-31
   6.120000      7.7756539E-31
   6.130000      9.3603929E-31
   6.140000      1.1028254E-30
   6.150000      1.2778838E-30
   6.160000      1.4611392E-30
   6.170000      1.6524789E-30
   6.180000      1.8517506E-30
   6.190000      2.0587595E-30
   6.200000      2.2732669E-30
   6.210000      2.4949875E-30
   6.220000      2.7235879E-30
   6.230000      2.9586824E-30
   6.240000      3.1998344E-30
   6.250000      3.4465509E-30
   6.260000      3.6982809E-30
   6.270000      3.9544160E-30
   6.280000      4.2142861E-30
   6.290000      4.4771574E-30
   6.300000      4.7422327E-30
   6.310000      5.0086479E-30
   6.320000      5.2754731E-30
   6.330000      5.5417096E-30
   6.340000      5.8062880E-30
   6.350000      6.0680692E-30
   6.360000      6.3258440E-30
   6.370000      6.5783320E-30
   6.380000      6.8241814E-30
   6.390000      7.0619698E-30
   6.400000      7.2902046E-30
   6.410000      7.5073231E-30
   6.420000      7.7116951E-30
   6.430000      7.9016226E-30
   6.440000      8.0753438E-30
   6.450000      8.2310319E-30
   6.460000      8.3668032E-30
   6.470000      8.4807129E-30
   6.480000      8.5707659E-30
   6.490000      8.6349167E-30
   6.500000      8.6710723E-30
   6.510000      8.6771013E-30
   6.520000      8.6508365E-30
   6.530000      8.5900816E-30
   6.540000      8.4926160E-30
   6.550000      8.3562045E-30
   6.560000      8.1785999E-30
   6.570000      7.9575573E-30
   6.580000      7.6908356E-30
   6.590000      7.3762124E-30
   6.600000      7.0114879E-30
   6.610000      6.5945015E-30
   6.620000      6.1231347E-30
   6.630000      5.5953290E-30
   6.640000      5.0090936E-30
   6.650000      4.3625198E-30
   6.660000      3.6537919E-30
   6.670000      2.8811989E-30
   6.680000      2.0431534E-30
   6.690000      1.1382008E-30
   6.700000      1.6503586E-31
   6.710000     -8.7748105E-31
   6.720000     -1.9903107E-30
   6.730000     -3.1742165E-30
   6.740000     -4.4297532E-30
   6.750000     -5.7572478E-30
   6.760000     -7.1567820E-30
   6.770000     -8.6281759E-30
   6.780000     -1.0170972E-29
   6.790000     -1.1784422E-29
   6.800000     -1.3467461E-29
   6.810000     -1.5218700E-29
   6.820000     -1.7036405E-29
   6.830000     -1.8918482E-29
   6.840000     -2.0862459E-29
   6.850000     -2.2865468E-29
   6.860000     -2.4924240E-29
   6.870000     -2.7035082E-29
   6.880000     -2.9193860E-29
   6.890000     -3.1395989E-29
   6.900000     -3.3636424E-29
   6.910000     -3.5909647E-29
   6.920000     -3.8209653E-29
   6.930000     -4.0529944E-29
   6.940000     -4.2863515E-29
   6.950000     -4.5202855E-29
   6.960000     -4.7539935E-29
   6.970000     -4.9866208E-29
   6.980000     -5.2172606E-29
   6.990000     -5.4449542E-29
   7.000000     -5.6686895E-29
   7.010000     -5.8874041E-29
   7.020000     -6.0999835E-29
   7.030000     -6.3052623E-29
   7.040000     -6.5020268E-29
   7.050000     -6.6890141E-29
   7.060000     -6.8649141E-29