  -2.600000      0.0000000E+00
  -2.590000      0.0000000E+00
  -2.580000      0.0000000E+00
  -2.570000      0.0000000E+00
  -2.560000      0.0000000E+00
  -2.550000      0.0000000E+00
  -2.540000      0.0000000E+00
  -2.530000      0.0000000E+00
  -2.520000      0.0000000E+00
  -2.510000      0.0000000E+00
  -2.500000      0.0000000E+00
  -2.490000      0.0000000E+00
  -2.480000      0.0000000E+00
  -2.470000      0.0000000E+00
  -2.460000      0.0000000E+00
  -2.450000      0.0000000E+00
  -2.440000      0.0000000E+00
  -2.430000      0.0000000E+00
  -2.420000      0.0000000E+00
  -2.410000      0.0000000E+00
  -2.400000      0.0000000E+00
  -2.390000      0.0000000E+00
  -2.380000      0.0000000E+00
  -2.370000      0.0000000E+00
  -2.360000      0.0000000E+00
  -2.350000      0.0000000E+00
  -2.340000      0.0000000E+00
  -2.330000      0.0000000E+00
  -2.320000      0.0000000E+00
  -2.310000      0.0000000E+00
  -2.300000      0.0000000E+00
  -2.290000      0.0000000E+00
  -2.280000      0.0000000E+00
  -2.270000      0.0000000E+00
  -2.260000      0.0000000E+00
  -2.250000      0.0000000E+00
  -2.240000      0.0000000E+00
  -2.230000      0.0000000E+00
  -2.220000      0.0000000E+00
  -2.210000      0.0000000E+00
  -2.200000      0.0000000E+00
  -2.190000      0.0000000E+00
  -2.180000      0.0000000E+00
  -2.170000      0.0000000E+00
  -2.160000      0.0000000E+00
  -2.150000      0.0000000E+00
  -2.140000      0.0000000E+00
  -2.130000      0.0000000E+00
  -2.120000      0.0000000E+00
  -2.110000      0.0000000E+00
  -2.100000      0.0000000E+00
  -2.090000      0.0000000E+00
  -2.080000      0.0000000E+00
  -2.070000      0.0000000E+00
  -2.060000      0.0000000E+00
  -2.050000      0.0000000E+00
  -2.040000      0.0000000E+00
  -2.030000      0.0000000E+00
  -2.020000      0.0000000E+00
  -2.010000      0.0000000E+00
  -2.000000      0.0000000E+00
  -1.990000      0.0000000E+00
  -1.980000      0.0000000E+00
  -1.970000      0.0000000E+00
  -1.960000      0.0000000E+00
  -1.950000      0.0000000E+00
  -1.940000      0.0000000E+00
  -1.930000      0.0000000E+00
  -1.920000      0.0000000E+00
  -1.910000      0.0000000E+00
  -1.900000      0.0000000E+00
  -1.890000      0.0000000E+00
  -1.880000      0.0000000E+00
  -1.870000      0.0000000E+00
  -1.860000      0.0000000E+00
  -1.850000      0.0000000E+00
  -1.840000      0.0000000E+00
  -1.830000      0.0000000E+00
  -1.820000      0.0000000E+00
  -1.810000      0.0000000E+00
  -1.800000      0.0000000E+00
  -1.790000      0.0000000E+00
  -1.780000      0.0000000E+00
  -1.770000      0.0000000E+00
  -1.760000      0.0000000E+00
  -1.750000      0.0000000E+00
  -1.740000      0.0000000E+00
  -1.730000      0.0000000E+00
  -1.720000      0.0000000E+00
  -1.710000      0.0000000E+00
  -1.700000      0.0000000E+00
  -1.690000      0.0000000E+00
  -1.680000      0.0000000E+00
  -1.670000      0.0000000E+00
  -1.660000      0.0000000E+00
  -1.650000      0.0000000E+00
  -1.640000      0.0000000E+00
  -1.630000      0.0000000E+00
  -1.620000      0.0000000E+00
  -1.610000      0.0000000E+00
  -1.600000      0.0000000E+00
  -1.590000      0.0000000E+00
  -1.580000      0.0000000E+00
  -1.570000      0.0000000E+00
  -1.560000      0.0000000E+00
  -1.550000      0.0000000E+00
  -1.540000      0.0000000E+00
  -1.530000      0.0000000E+00
  -1.520000      0.0000000E+00
  -1.510000      0.0000000E+00
  -1.500000      0.0000000E+00
  -1.490000      0.0000000E+00
  -1.480000      0.0000000E+00
  -1.470000      0.0000000E+00
  -1.460000      0.0000000E+00
  -1.450000      0.0000000E+00
  -1.440000      0.0000000E+00
  -1.430000      0.0000000E+00
  -1.420000      0.0000000E+00
  -1.410000      0.0000000E+00
  -1.400000      0.0000000E+00
  -1.390000      0.0000000E+00
  -1.380000      0.0000000E+00
  -1.370000      0.0000000E+00
  -1.360000      0.0000000E+00
  -1.350000      0.0000000E+00
  -1.340000      0.0000000E+00
  -1.330000      0.0000000E+00
  -1.320000      0.0000000E+00
  -1.310000      0.0000000E+00
  -1.300000      0.0000000E+00
  -1.290000      0.0000000E+00
  -1.280000      0.0000000E+00
  -1.270000      0.0000000E+00
  -1.260000      0.0000000E+00
  -1.250000      0.0000000E+00
  -1.240000      0.0000000E+00
  -1.230000      0.0000000E+00
  -1.220000      0.0000000E+00
  -1.210000      0.0000000E+00
  -1.200000      0.0000000E+00
  -1.190000      0.0000000E+00
  -1.180000      0.0000000E+00
  -1.170000      0.0000000E+00
  -1.160000      0.0000000E+00
  -1.150000      0.0000000E+00
  -1.140000      0.0000000E+00
  -1.130000      0.0000000E+00
  -1.120000      0.0000000E+00
  -1.110000      0.0000000E+00
  -1.100000      0.0000000E+00
  -1.090000      0.0000000E+00
  -1.080000      0.0000000E+00
  -1.070000      0.0000000E+00
  -1.060000      0.0000000E+00
  -1.050000      0.0000000E+00
  -1.040000      0.0000000E+00
  -1.030000      0.0000000E+00
  -1.020000      0.0000000E+00
  -1.010000      0.0000000E+00
  -1.000000      0.0000000E+00
 -0.9900000      0.0000000E+00
 -0.9800000      0.0000000E+00
 -0.9700000      0.0000000E+00
 -0.9600000      0.0000000E+00
 -0.9500000      0.0000000E+00
 -0.9400000      0.0000000E+00
 -0.9300000      0.0000000E+00
 -0.9200000      0.0000000E+00
 -0.9100000      0.0000000E+00
 -0.9000000      0.0000000E+00
 -0.8900000      0.0000000E+00
 -0.8800000      0.0000000E+00
 -0.8700000      0.0000000E+00
 -0.8600000      0.0000000E+00
 -0.8500000      0.0000000E+00
 -0.8400000      0.0000000E+00
 -0.8300000      0.0000000E+00
 -0.8200000      0.0000000E+00
 -0.8100000      0.0000000E+00
 -0.8000000      0.0000000E+00
 -0.7900000      0.0000000E+00
 -0.7800000      0.0000000E+00
 -0.7700000      0.0000000E+00
 -0.7600000      0.0000000E+00
 -0.7500000      0.0000000E+00
 -0.7400000      0.0000000E+00
 -0.7300000      0.0000000E+00
 -0.7200000      0.0000000E+00
 -0.7100000      0.0000000E+00
 -0.7000000      0.0000000E+00
 -0.6900000      0.0000000E+00
 -0.6800000      0.0000000E+00
 -0.6700000      0.0000000E+00
 -0.6600000      0.0000000E+00
 -0.6500000      0.0000000E+00
 -0.6400000      0.0000000E+00
 -0.6300000      0.0000000E+00
 -0.6200000      0.0000000E+00
 -0.6100000      0.0000000E+00
 -0.6000000      0.0000000E+00
 -0.5900000      0.0000000E+00
 -0.5800000      0.0000000E+00
 -0.5700000      0.0000000E+00
 -0.5600000      0.0000000E+00
 -0.5500000      0.0000000E+00
 -0.5400000      0.0000000E+00
 -0.5300000      0.0000000E+00
 -0.5200000      0.0000000E+00
 -0.5100000      0.0000000E+00
 -0.5000000      0.0000000E+00
 -0.4900000      0.0000000E+00
 -0.4800000      0.0000000E+00
 -0.4700000      0.0000000E+00
 -0.4600000      0.0000000E+00
 -0.4500000      0.0000000E+00
 -0.4400000      0.0000000E+00
 -0.4300000      0.0000000E+00
 -0.4200000      0.0000000E+00
 -0.4100000      0.0000000E+00
 -0.4000000      0.0000000E+00
 -0.3900000      0.0000000E+00
 -0.3800000      0.0000000E+00
 -0.3700000      0.0000000E+00
 -0.3600000      0.0000000E+00
 -0.3500000      0.0000000E+00
 -0.3400000      0.0000000E+00
 -0.3300000      0.0000000E+00
 -0.3200000      0.0000000E+00
 -0.3100000      0.0000000E+00
 -0.3000000      0.0000000E+00
 -0.2900000      0.0000000E+00
 -0.2800000      0.0000000E+00
 -0.2700000      0.0000000E+00
 -0.2600000      0.0000000E+00
 -0.2500000      0.0000000E+00
 -0.2400000      0.0000000E+00
 -0.2300000      0.0000000E+00
 -0.2200000      0.0000000E+00
 -0.2100000      0.0000000E+00
 -0.2000000      0.0000000E+00
 -0.1900000      0.0000000E+00
 -0.1800000      0.0000000E+00
 -0.1700000      0.0000000E+00
 -0.1600000      0.0000000E+00
 -0.1500000      0.0000000E+00
 -0.1400000      0.0000000E+00
 -0.1300000      0.0000000E+00
 -0.1200000      0.0000000E+00
 -0.1100000      0.0000000E+00
 -0.1000000      0.0000000E+00
 -9.0000004E-02  0.0000000E+00
 -7.9999998E-02  0.0000000E+00
 -7.0000000E-02  0.0000000E+00
 -5.9999999E-02  0.0000000E+00
 -5.0000001E-02  0.0000000E+00
 -3.9999999E-02  0.0000000E+00
 -2.9999999E-02  0.0000000E+00
 -2.0000000E-02  0.0000000E+00
 -9.9999998E-03  0.0000000E+00
 -3.4694470E-17  0.0000000E+00
  9.9999998E-03  0.0000000E+00
  2.0000000E-02  0.0000000E+00
  2.9999999E-02  0.0000000E+00
  3.9999999E-02  0.0000000E+00
  5.0000001E-02  0.0000000E+00
  5.9999999E-02  0.0000000E+00
  7.0000000E-02  0.0000000E+00
  7.9999998E-02  0.0000000E+00
  9.0000004E-02  0.0000000E+00
  0.1000000      0.0000000E+00
  0.1100000      0.0000000E+00
  0.1200000      0.0000000E+00
  0.1300000      0.0000000E+00
  0.1400000      0.0000000E+00
  0.1500000      0.0000000E+00
  0.1600000      0.0000000E+00
  0.1700000      0.0000000E+00
  0.1800000      0.0000000E+00
  0.1900000      0.0000000E+00
  0.2000000      0.0000000E+00
  0.2100000      0.0000000E+00
  0.2200000      0.0000000E+00
  0.2300000      0.0000000E+00
  0.2400000      0.0000000E+00
  0.2500000      0.0000000E+00
  0.2600000      0.0000000E+00
  0.2700000      0.0000000E+00
  0.2800000      0.0000000E+00
  0.2900000      0.0000000E+00
  0.3000000      0.0000000E+00
  0.3100000      0.0000000E+00
  0.3200000      0.0000000E+00
  0.3300000      0.0000000E+00
  0.3400000      0.0000000E+00
  0.3500000      0.0000000E+00
  0.3600000      0.0000000E+00
  0.3700000      0.0000000E+00
  0.3800000      0.0000000E+00
  0.3900000      0.0000000E+00
  0.4000000      0.0000000E+00
  0.4100000      0.0000000E+00
  0.4200000      0.0000000E+00
  0.4300000      0.0000000E+00
  0.4400000      0.0000000E+00
  0.4500000      0.0000000E+00
  0.4600000      0.0000000E+00
  0.4700000      0.0000000E+00
  0.4800000      0.0000000E+00
  0.4900000      0.0000000E+00
  0.5000000      0.0000000E+00
  0.5100000      0.0000000E+00
  0.5200000      0.0000000E+00
  0.5300000      0.0000000E+00
  0.5400000      0.0000000E+00
  0.5500000      0.0000000E+00
  0.5600000      0.0000000E+00
  0.5700000      0.0000000E+00
  0.5800000      0.0000000E+00
  0.5900000      0.0000000E+00
  0.6000000      0.0000000E+00
  0.6100000      0.0000000E+00
  0.6200000      0.0000000E+00
  0.6300000      0.0000000E+00
  0.6400000      0.0000000E+00
  0.6500000      0.0000000E+00
  0.6600000      0.0000000E+00
  0.6700000      0.0000000E+00
  0.6800000      0.0000000E+00
  0.6900000      0.0000000E+00
  0.7000000      0.0000000E+00
  0.7100000      0.0000000E+00
  0.7200000      0.0000000E+00
  0.7300000      0.0000000E+00
  0.7400000      0.0000000E+00
  0.7500000      0.0000000E+00
  0.7600000      0.0000000E+00
  0.7700000      0.0000000E+00
  0.7800000      0.0000000E+00
  0.7900000      0.0000000E+00
  0.8000000      0.0000000E+00
  0.8100000      0.0000000E+00
  0.8200000      0.0000000E+00
  0.8300000      0.0000000E+00
  0.8400000      0.0000000E+00
  0.8500000      0.0000000E+00
  0.8600000      0.0000000E+00
  0.8700000      0.0000000E+00
  0.8800000      0.0000000E+00
  0.8900000      0.0000000E+00
  0.9000000      0.0000000E+00
  0.9100000      0.0000000E+00
  0.9200000      0.0000000E+00
  0.9300000      0.0000000E+00
  0.9400000      0.0000000E+00
  0.9500000      0.0000000E+00
  0.9600000      0.0000000E+00
  0.9700000      0.0000000E+00
  0.9800000      0.0000000E+00
  0.9900000      0.0000000E+00
   1.000000      0.0000000E+00
   1.010000      0.0000000E+00
   1.020000      0.0000000E+00
   1.030000      0.0000000E+00
   1.040000      0.0000000E+00
   1.050000      0.0000000E+00
   1.060000      0.0000000E+00
   1.070000      0.0000000E+00
   1.080000      0.0000000E+00
   1.090000      0.0000000E+00
   1.100000      0.0000000E+00
   1.110000      0.0000000E+00
   1.120000      0.0000000E+00
   1.130000      0.0000000E+00
   1.140000      0.0000000E+00
   1.150000      0.0000000E+00
   1.160000      0.0000000E+00
   1.170000      0.0000000E+00
   1.180000      0.0000000E+00
   1.190000      0.0000000E+00
   1.200000      0.0000000E+00
   1.210000      0.0000000E+00
   1.220000      0.0000000E+00
   1.230000      0.0000000E+00
   1.240000      0.0000000E+00
   1.250000      0.0000000E+00
   1.260000      0.0000000E+00
   1.270000      0.0000000E+00
   1.280000      0.0000000E+00
   1.290000      0.0000000E+00
   1.300000      0.0000000E+00
   1.310000      0.0000000E+00
   1.320000      0.0000000E+00
   1.330000      0.0000000E+00
   1.340000      0.0000000E+00
   1.350000      0.0000000E+00
   1.360000      0.0000000E+00
   1.370000      0.0000000E+00
   1.380000      0.0000000E+00
   1.390000      0.0000000E+00
   1.400000      0.0000000E+00
   1.410000      0.0000000E+00
   1.420000      0.0000000E+00
   1.430000      0.0000000E+00
   1.440000      0.0000000E+00
   1.450000      0.0000000E+00
   1.460000      0.0000000E+00
   1.470000      0.0000000E+00
   1.480000      0.0000000E+00
   1.490000      0.0000000E+00
   1.500000      0.0000000E+00
   1.510000      0.0000000E+00
   1.520000      0.0000000E+00
   1.530000      0.0000000E+00
   1.540000      0.0000000E+00
   1.550000      0.0000000E+00
   1.560000      0.0000000E+00
   1.570000      0.0000000E+00
   1.580000      0.0000000E+00
   1.590000      0.0000000E+00
   1.600000      0.0000000E+00
   1.610000      0.0000000E+00
   1.620000      0.0000000E+00
   1.630000      0.0000000E+00
   1.640000      0.0000000E+00
   1.650000      0.0000000E+00
   1.660000      0.0000000E+00
   1.670000      0.0000000E+00
   1.680000      0.0000000E+00
   1.690000      0.0000000E+00
   1.700000      0.0000000E+00
   1.710000      0.0000000E+00
   1.720000      0.0000000E+00
   1.730000      0.0000000E+00
   1.740000      0.0000000E+00
   1.750000      0.0000000E+00
   1.760000      0.0000000E+00
   1.770000      0.0000000E+00
   1.780000      0.0000000E+00
   1.790000      0.0000000E+00
   1.800000      0.0000000E+00
   1.810000      0.0000000E+00
   1.820000     -1.6164456E-38
   1.830000     -2.1795600E-38
   1.840000     -2.7734620E-38
   1.850000     -3.3884605E-38
   1.860000     -4.0158218E-38
   1.870000     -4.6433115E-38
   1.880000     -5.2479463E-38
   1.890000     -5.8017075E-38
   1.900000     -6.2757331E-38
   1.910000     -6.4890247E-38
   1.920000     -6.4890247E-38
   1.930000     -6.4890247E-38
   1.940000     -6.4890247E-38
   1.950000     -6.4890247E-38
   1.960000     -6.3072461E-38
   1.970000     -5.8547539E-38
   1.980000     -5.2198525E-38
   1.990000     -4.5853485E-38
   2.000000     -3.9857432E-38
   2.010000     -3.2629919E-38
   2.020000     -2.4117412E-38
   2.030000     -1.4350751E-38
   2.040000      0.0000000E+00
   2.050000      0.0000000E+00
   2.060000      2.3129767E-38
   2.070000      3.9943290E-38
   2.080000      5.9830893E-38
   2.090000      8.1070066E-38
   2.100000      1.0348569E-37
   2.110000      1.2693553E-37
   2.120000      1.5125246E-37
   2.130000      1.7747834E-37
   2.140000      2.0313057E-37
   2.150000      2.2613955E-37
   2.160000      2.4796667E-37
   2.170000      2.6841054E-37
   2.180000      2.8969727E-37
   2.190000      3.1231104E-37
   2.200000      3.3421047E-37
   2.210000      3.5498803E-37
   2.220000      3.7416573E-37
   2.230000      3.9125527E-37
   2.240000      4.0523632E-37
   2.250000      4.1589000E-37
   2.260000      4.2126431E-37
   2.270000      4.2010143E-37
   2.280000      4.1347076E-37
   2.290000      4.0151367E-37
   2.300000      3.8394040E-37
   2.310000      3.6177899E-37
   2.320000      3.3951211E-37
   2.330000      3.1567064E-37
   2.340000      2.8579816E-37
   2.350000      2.4960220E-37
   2.360000      2.0680298E-37
   2.370000      1.5028915E-37
   2.380000      7.9535638E-38
   2.390000      0.0000000E+00
   2.400000      9.2946821E-38
   2.410000      3.7074588E-37
   2.420000      6.6734088E-37
   2.430000      9.7398422E-37
   2.440000      1.2894817E-36
   2.450000      1.6159966E-36
   2.460000      1.9513725E-36
   2.470000      2.2932902E-36
   2.480000      2.7323908E-36
   2.490000      3.2700504E-36
   2.500000      3.8164436E-36
   2.510000      3.1860503E-36
   2.520000      1.1702922E-36
   2.530000     -1.1398023E-36
   2.540000     -3.5331766E-36
   2.550000     -5.8055258E-36
   2.560000     -7.9070448E-36
   2.570000     -8.8379239E-36
   2.580000     -8.6460580E-36
   2.590000     -8.4366544E-36
   2.600000     -8.1953947E-36
   2.610000     -7.9191047E-36
   2.620000     -7.6324043E-36
   2.630000     -7.2375698E-36
   2.640000     -6.9276394E-36
   2.650000     -6.9291281E-36
   2.660000     -7.1684299E-36
   2.670000     -6.7693637E-36
   2.680000     -5.8345361E-36
   2.690000     -6.2042978E-36
   2.700000     -6.7797792E-36
   2.710000     -6.4867515E-36
   2.720000     -6.2794924E-36
   2.730000     -6.1619351E-36
   2.740000     -6.1157275E-36
   2.750000     -6.1408337E-36
   2.760000     -7.3136304E-36
   2.770000     -8.8999881E-36
   2.780000     -9.6739210E-36
   2.790000     -1.0215965E-35
   2.800000     -9.7413577E-36
   2.810000     -8.2326612E-36
   2.820000     -5.5131295E-36
   2.830000     -2.0025925E-36
   2.840000      9.0387087E-37
   2.850000      3.1706435E-36
   2.860000      3.7908957E-36
   2.870000      3.0201036E-36
   2.880000      3.3968113E-36
   2.890000      5.2295185E-36
   2.900000      7.5191181E-36
   2.910000      1.0373022E-35
   2.920000      1.4449037E-35
   2.930000      1.7695654E-35
   2.940000      1.9072615E-35
   2.950000      1.9122014E-35
   2.960000      1.8171943E-35
   2.970000      1.7869024E-35
   2.980000      1.7881383E-35
   2.990000      1.8315881E-35
   3.000000      1.8597302E-35
   3.010000      2.0406150E-35
   3.020000      2.5887100E-35
   3.030000      3.1705450E-35
   3.040000      3.6178172E-35
   3.050000      3.9960856E-35
   3.060000      4.2171474E-35
   3.070000      4.1893319E-35
   3.080000      3.9302467E-35
   3.090000      3.4302326E-35
   3.100000      2.6805651E-35
   3.110000      1.9018866E-35
   3.120000      1.2291375E-35
   3.130000      6.0677147E-36
   3.140000     -4.4182035E-37
   3.150000     -6.6427269E-36
   3.160000     -1.1324392E-35
   3.170000     -1.5075085E-35
   3.180000     -1.8502462E-35
   3.190000     -2.2057526E-35
   3.200000     -2.5719943E-35
   3.210000     -3.0200301E-35
   3.220000     -3.5679212E-35
   3.230000     -4.2453194E-35
   3.240000     -4.6535746E-35
   3.250000     -4.7580183E-35
   3.260000     -4.9226472E-35
   3.270000     -4.8065579E-35
   3.280000     -4.4529623E-35
   3.290000     -4.1126093E-35
   3.300000     -4.2576021E-35
   3.310000     -4.7920875E-35
   3.320000     -5.0435768E-35
   3.330000     -5.2765123E-35
   3.340000     -5.7953806E-35
   3.350000     -6.2769682E-35
   3.360000     -6.9738217E-35
   3.370000     -8.1280320E-35
   3.380000     -9.3705370E-35
   3.390000     -1.0700157E-34
   3.400000     -1.1857318E-34
   3.410000     -1.2259965E-34
   3.420000     -1.2137870E-34
   3.430000     -1.2108415E-34
   3.440000     -1.1960093E-34
   3.450000     -1.1479890E-34
   3.460000     -1.0813019E-34
   3.470000     -9.8903891E-35
   3.480000     -8.7112586E-35
   3.490000     -7.3354360E-35
   3.500000     -6.5356550E-35
   3.510000     -6.6232833E-35
   3.520000     -6.4153649E-35
   3.530000     -5.5536512E-35
   3.540000     -4.9293013E-35
   3.550000     -4.6882517E-35
   3.560000     -4.3204178E-35
   3.570000     -3.7121156E-35
   3.580000     -2.9095813E-35
   3.590000     -2.2794625E-35
   3.600000     -1.3934508E-35
   3.610000      1.6859212E-36
   3.620000      2.4997915E-35
   3.630000      5.5220856E-35
   3.640000      8.7461877E-35
   3.650000      1.1524299E-34
   3.660000      1.2866968E-34
   3.670000      1.2887387E-34
   3.680000      1.2283304E-34
   3.690000      1.1411502E-34
   3.700000      1.0972240E-34
   3.710000      1.1248809E-34
   3.720000      1.1785674E-34
   3.730000      1.3075275E-34
   3.740000      1.5277185E-34
   3.750000      1.8564069E-34
   3.760000      2.2657270E-34
   3.770000      2.6982936E-34
   3.780000      3.2160203E-34
   3.790000      3.8429151E-34
   3.800000      4.5230479E-34
   3.810000      5.2052497E-34
   3.820000      5.8168865E-34
   3.830000      6.2424655E-34
   3.840000      6.4875579E-34
   3.850000      6.5882542E-34
   3.860000      6.5680416E-34
   3.870000      6.4849172E-34
   3.880000      6.3750319E-34
   3.890000      6.2700855E-34
   3.900000      6.2395387E-34
   3.910000      6.3292478E-34
   3.920000      6.5169476E-34
   3.930000      6.8107881E-34
   3.940000      7.2483686E-34
   3.950000      7.7599819E-34
   3.960000      8.2266237E-34
   3.970000      8.6143385E-34
   3.980000      8.9117230E-34
   3.990000      9.0183853E-34
   4.000000      8.8977934E-34
   4.010000      8.5739768E-34
   4.020000      8.0557996E-34
   4.030000      7.3938755E-34
   4.040000      6.6312593E-34
   4.050000      5.8786128E-34
   4.060000      5.1221468E-34
   4.070000      4.3218212E-34
   4.080000      3.5745835E-34
   4.090000      2.8549537E-34
   4.100000      2.1572445E-34
   4.110000      1.5001603E-34
   4.120000      8.4233486E-35
   4.130000      1.5137812E-35
   4.140000     -6.3768583E-35
   4.150000     -1.5989374E-34
   4.160000     -2.7349045E-34
   4.170000     -4.0569409E-34
   4.180000     -5.5807972E-34
   4.190000     -7.3411312E-34
   4.200000     -9.2735943E-34
   4.210000     -1.1275261E-33
   4.220000     -1.3367282E-33
   4.230000     -1.5493383E-33
   4.240000     -1.7605412E-33
   4.250000     -1.9672510E-33
   4.260000     -2.1653904E-33
   4.270000     -2.3607782E-33
   4.280000     -2.5526920E-33
   4.290000     -2.7355410E-33
   4.300000     -2.9182292E-33
   4.310000     -3.1068430E-33
   4.320000     -3.3034679E-33
   4.330000     -3.5145830E-33
   4.340000     -3.7443385E-33
   4.350000     -3.9939941E-33
   4.360000     -4.2583572E-33
   4.370000     -4.5283451E-33
   4.380000     -4.7997469E-33
   4.390000     -5.0677832E-33
   4.400000     -5.3273353E-33
   4.410000     -5.5718943E-33
   4.420000     -5.7960636E-33
   4.430000     -5.9994837E-33
   4.440000     -6.1781221E-33
   4.450000     -6.3296286E-33
   4.460000     -6.4583202E-33
   4.470000     -6.5695756E-33
   4.480000     -6.6649699E-33
   4.490000     -6.7460504E-33
   4.500000     -6.8206436E-33
   4.510000     -6.8809406E-33
   4.520000     -6.9212622E-33
   4.530000     -6.9474581E-33
   4.540000     -6.9536030E-33
   4.550000     -6.9341831E-33
   4.560000     -6.8833041E-33
   4.570000     -6.7935749E-33
   4.580000     -6.6555307E-33
   4.590000     -6.4600291E-33
   4.600000     -6.2057807E-33
   4.610000     -5.8929629E-33
   4.620000     -5.5204965E-33
   4.630000     -5.0883977E-33
   4.640000     -4.5978220E-33
   4.650000     -4.0496497E-33
   4.660000     -3.4438932E-33
   4.670000     -2.7834832E-33
   4.680000     -2.0715131E-33
   4.690000     -1.3068695E-33
   4.700000     -4.8600598E-34
   4.710000      3.9556345E-34
   4.720000      1.3432470E-33
   4.730000      2.3610456E-33
   4.740000      3.4564691E-33
   4.750000      4.6374402E-33
   4.760000      5.9072874E-33
   4.770000      7.2688758E-33
   4.780000      8.7217662E-33
   4.790000      1.0268503E-32
   4.800000      1.1907564E-32
   4.810000      1.3632706E-32
   4.820000      1.5437732E-32
   4.830000      1.7317628E-32
   4.840000      1.9268086E-32
   4.850000      2.1284964E-32
   4.860000      2.3365945E-32
   4.870000      2.5508119E-32
   4.880000      2.7711139E-32
   4.890000      2.9973995E-32
   4.900000      3.2296640E-32
   4.910000      3.4678600E-32
   4.920000      3.7119211E-32
   4.930000      3.9616032E-32
   4.940000      4.2163357E-32
   4.950000      4.4754320E-32
   4.960000      4.7380004E-32
   4.970000      5.0028734E-32
   4.980000      5.2686885E-32
   4.990000      5.5340429E-32
   5.000000      5.7973559E-32
   5.010000      6.0570397E-32
   5.020000      6.3115483E-32
   5.030000      6.5592984E-32
   5.040000      6.7988107E-32
   5.050000      7.0287697E-32
   5.060000      7.2476186E-32
   5.070000      7.4537491E-32
   5.080000      7.6457321E-32
   5.090000      7.8219651E-32
   5.100000      7.9807062E-32
   5.110000      8.1199782E-32
   5.120000      8.2375799E-32
   5.130000      8.3311217E-32
   5.140000      8.3979814E-32
   5.150000      8.4353063E-32
   5.160000      8.4401100E-32
   5.170000      8.4093150E-32
   5.180000      8.3398174E-32
   5.190000      8.2285257E-32
   5.200000      8.0723019E-32
   5.210000      7.8682949E-32
   5.220000      7.6138186E-32
   5.230000      7.3059407E-32
   5.240000      6.9418596E-32
   5.250000      6.5189672E-32
   5.260000      6.0345960E-32
   5.270000      5.4860668E-32
   5.280000      4.8706197E-32
   5.290000      4.1854267E-32
   5.300000      3.4275940E-32
   5.310000      2.5941406E-32
   5.320000      1.6821339E-32
   5.330000      6.8866829E-33
   5.340000     -3.8911074E-33
   5.350000     -1.5538616E-32
   5.360000     -2.8080150E-32
   5.370000     -4.1537157E-32
   5.380000     -5.5927747E-32
   5.390000     -7.1266085E-32
   5.400000     -8.7562827E-32
   5.410000     -1.0482483E-31
   5.420000     -1.2305525E-31
   5.430000     -1.4225238E-31
   5.440000     -1.6241108E-31
   5.450000     -1.8352368E-31
   5.460000     -2.0557835E-31
   5.470000     -2.2856025E-31
   5.480000     -2.5245053E-31
   5.490000     -2.7722607E-31
   5.500000     -3.0285878E-31
   5.510000     -3.2931500E-31
   5.520000     -3.5655532E-31
   5.530000     -3.8453223E-31
   5.540000     -4.1319068E-31
   5.550000     -4.4246835E-31
   5.560000     -4.7229388E-31
   5.570000     -5.0258731E-31
   5.580000     -5.3325897E-31
   5.590000     -5.6421082E-31
   5.600000     -5.9533678E-31
   5.610000     -6.2652147E-31
   5.620000     -6.5764151E-31
   5.630000     -6.8856580E-31
   5.640000     -7.1915503E-31
   5.650000     -7.4926189E-31
   5.660000     -7.7873073E-31
   5.670000     -8.0739732E-31
   5.680000     -8.3508868E-31
   5.690000     -8.6162278E-31
   5.700000     -8.8680789E-31
   5.710000     -9.1044229E-31
   5.720000     -9.3231429E-31
   5.730000     -9.5220243E-31
   5.740000     -9.6987537E-31
   5.750000     -9.8509220E-31
   5.760000     -9.9760331E-31
   5.770000     -1.0071514E-30
   5.780000     -1.0134718E-30
   5.790000     -1.0162930E-30
   5.800000     -1.0153391E-30
   5.810000     -1.0103290E-30
   5.820000     -1.0009784E-30
   5.830000     -9.8699960E-31
   5.840000     -9.6810311E-31
   5.850000     -9.4399729E-31
   5.860000     -9.1438950E-31
   5.870000     -8.7898700E-31
   5.880000     -8.3749713E-31
   5.890000     -7.8962855E-31
   5.900000     -7.3509285E-31
   5.910000     -6.7360472E-31
   5.920000     -6.0488419E-31
   5.930000     -5.2865851E-31
   5.940000     -4.4466379E-31
   5.950000     -3.5264718E-31
   5.960000     -2.5236883E-31
   5.970000     -1.4360368E-31
   5.980000     -2.6143485E-32
   5.990000      1.0020038E-31
   6.000000      2.3559545E-31
   6.010000      3.8018642E-31
   6.020000      5.3409333E-31
   6.030000      6.9740998E-31
   6.040000      8.7020135E-31
   6.050000      1.0525029E-30
   6.060000      1.2443177E-30
   6.070000      1.4456140E-30
   6.080000      1.6563236E-30
   6.090000      1.8763403E-30
   6.100000      2.1055158E-30
   6.110000      2.3436570E-30
   6.120000      2.5905245E-30
   6.130000      2.8458301E-30
   6.140000      3.1092332E-30
   6.150000      3.3803381E-30
   6.160000      3.6586925E-30
   6.170000      3.9437851E-30
   6.180000      4.2350421E-30
   6.190000      4.5318286E-30
   6.200000      4.8334454E-30
   6.210000      5.1391274E-30
   6.220000      5.4480420E-30
   6.230000      5.7592881E-30
   6.240000      6.0718951E-30
   6.250000      6.3848196E-30
   6.260000      6.6969482E-30
   6.270000      7.0070936E-30
   6.280000      7.3139936E-30
   6.290000      7.6163111E-30
   6.300000      7.9126350E-30
   6.310000      8.2014764E-30
   6.320000      8.4812734E-30
   6.330000      8.7503897E-30
   6.340000      9.0071147E-30
   6.350000      9.2496637E-30
   6.360000      9.4761802E-30
   6.370000      9.6847396E-30
   6.380000      9.8733521E-30
   6.390000      1.0039965E-29
   6.400000      1.0182465E-29
   6.410000      1.0298678E-29
   6.420000      1.0386381E-29
   6.430000      1.0443302E-29
   6.440000      1.0467122E-29
   6.450000      1.0455488E-29
   6.460000      1.0406009E-29
   6.470000      1.0316269E-29
   6.480000      1.0183833E-29
   6.490000      1.0006253E-29
   6.500000      9.7810737E-30
   6.510000      9.5058418E-30
   6.520000      9.1781139E-30
   6.530000      8.7954708E-30
   6.540000      8.3555214E-30
   6.550000      7.8559194E-30
   6.560000      7.2943716E-30
   6.570000      6.6686475E-30
   6.580000      5.9765917E-30
   6.590000      5.2161435E-30
   6.600000      4.3853406E-30
   6.610000      3.4823401E-30
   6.620000      2.5054299E-30
   6.630000      1.4530413E-30
   6.640000      3.2376702E-31
   6.650000     -8.8362569E-31
   6.660000     -2.1701809E-30
   6.670000     -3.5367386E-30
   6.680000     -4.9839162E-30
   6.690000     -6.5120882E-30
   6.700000     -8.1213757E-30
   6.710000     -9.8116320E-30
   6.720000     -1.1582416E-29
   6.730000     -1.3432979E-29
   6.740000     -1.5362254E-29
   6.750000     -1.7368837E-29
   6.760000     -1.9450957E-29
   6.770000     -2.1606465E-29
   6.780000     -2.3832817E-29
   6.790000     -2.6127063E-29
   6.800000     -2.8485840E-29
   6.810000     -3.0905341E-29
   6.820000     -3.3381304E-29
   6.830000     -3.5909003E-29
   6.840000     -3.8483237E-29
   6.850000     -4.1098307E-29
   6.860000     -4.3748010E-29
   6.870000     -4.6425631E-29
   6.880000     -4.9123937E-29
   6.890000     -5.1835159E-29
   6.900000     -5.4550997E-29
   6.910000     -5.7262586E-29
   6.920000     -5.9960531E-29
   6.930000     -6.2634889E-29
   6.940000     -6.5275182E-29
   6.950000     -6.7870361E-29
   6.960000     -7.0408857E-29
   6.970000     -7.2878567E-29
   6.980000     -7.5266847E-29
   6.990000     -7.7560551E-29
   7.000000     -7.9746024E-29
   7.010000     -8.1809129E-29
   7.020000     -8.3735263E-29
   7.030000     -8.5509364E-29
   7.040000     -8.7115950E-29
   7.050000     -8.8539146E-29
   7.060000     -8.9762732E-29