  -2.600000      0.0000000E+00
  -2.590000      0.0000000E+00
  -2.580000      0.0000000E+00
  -2.570000      0.0000000E+00
  -2.560000      0.0000000E+00
  -2.550000      0.0000000E+00
  -2.540000      0.0000000E+00
  -2.530000      0.0000000E+00
  -2.520000      0.0000000E+00
  -2.510000      0.0000000E+00
  -2.500000      0.0000000E+00
  -2.490000      0.0000000E+00
  -2.480000      0.0000000E+00
  -2.470000      0.0000000E+00
  -2.460000      0.0000000E+00
  -2.450000      0.0000000E+00
  -2.440000      0.0000000E+00
  -2.430000      0.0000000E+00
  -2.420000      0.0000000E+00
  -2.410000      0.0000000E+00
  -2.400000      0.0000000E+00
  -2.390000      0.0000000E+00
  -2.380000      0.0000000E+00
  -2.370000      0.0000000E+00
  -2.360000      0.0000000E+00
  -2.350000      0.0000000E+00
  -2.340000      0.0000000E+00
  -2.330000      0.0000000E+00
  -2.320000      0.0000000E+00
  -2.310000      0.0000000E+00
  -2.300000      0.0000000E+00
  -2.290000      0.0000000E+00
  -2.280000      0.0000000E+00
  -2.270000      0.0000000E+00
  -2.260000      0.0000000E+00
  -2.250000      0.0000000E+00
  -2.240000      0.0000000E+00
  -2.230000      0.0000000E+00
  -2.220000      0.0000000E+00
  -2.210000      0.0000000E+00
  -2.200000      0.0000000E+00
  -2.190000      0.0000000E+00
  -2.180000      0.0000000E+00
  -2.170000      0.0000000E+00
  -2.160000      0.0000000E+00
  -2.150000      0.0000000E+00
  -2.140000      0.0000000E+00
  -2.130000      0.0000000E+00
  -2.120000      0.0000000E+00
  -2.110000      0.0000000E+00
  -2.100000      0.0000000E+00
  -2.090000      0.0000000E+00
  -2.080000      0.0000000E+00
  -2.070000      0.0000000E+00
  -2.060000      0.0000000E+00
  -2.050000      0.0000000E+00
  -2.040000      0.0000000E+00
  -2.030000      0.0000000E+00
  -2.020000      0.0000000E+00
  -2.010000      0.0000000E+00
  -2.000000      0.0000000E+00
  -1.990000      0.0000000E+00
  -1.980000      0.0000000E+00
  -1.970000      0.0000000E+00
  -1.960000      0.0000000E+00
  -1.950000      0.0000000E+00
  -1.940000      0.0000000E+00
  -1.930000      0.0000000E+00
  -1.920000      0.0000000E+00
  -1.910000      0.0000000E+00
  -1.900000      0.0000000E+00
  -1.890000      0.0000000E+00
  -1.880000      0.0000000E+00
  -1.870000      0.0000000E+00
  -1.860000      0.0000000E+00
  -1.850000      0.0000000E+00
  -1.840000      0.0000000E+00
  -1.830000      0.0000000E+00
  -1.820000      0.0000000E+00
  -1.810000      0.0000000E+00
  -1.800000      0.0000000E+00
  -1.790000      0.0000000E+00
  -1.780000      0.0000000E+00
  -1.770000      0.0000000E+00
  -1.760000      0.0000000E+00
  -1.750000      0.0000000E+00
  -1.740000      0.0000000E+00
  -1.730000      0.0000000E+00
  -1.720000      0.0000000E+00
  -1.710000      0.0000000E+00
  -1.700000      0.0000000E+00
  -1.690000      0.0000000E+00
  -1.680000      0.0000000E+00
  -1.670000      0.0000000E+00
  -1.660000      0.0000000E+00
  -1.650000      0.0000000E+00
  -1.640000      0.0000000E+00
  -1.630000      0.0000000E+00
  -1.620000      0.0000000E+00
  -1.610000      0.0000000E+00
  -1.600000      0.0000000E+00
  -1.590000      0.0000000E+00
  -1.580000      0.0000000E+00
  -1.570000      0.0000000E+00
  -1.560000      0.0000000E+00
  -1.550000      0.0000000E+00
  -1.540000      0.0000000E+00
  -1.530000      0.0000000E+00
  -1.520000      0.0000000E+00
  -1.510000      0.0000000E+00
  -1.500000      0.0000000E+00
  -1.490000      0.0000000E+00
  -1.480000      0.0000000E+00
  -1.470000      0.0000000E+00
  -1.460000      0.0000000E+00
  -1.450000      0.0000000E+00
  -1.440000      0.0000000E+00
  -1.430000      0.0000000E+00
  -1.420000      0.0000000E+00
  -1.410000      0.0000000E+00
  -1.400000      0.0000000E+00
  -1.390000      0.0000000E+00
  -1.380000      0.0000000E+00
  -1.370000      0.0000000E+00
  -1.360000      0.0000000E+00
  -1.350000      0.0000000E+00
  -1.340000      0.0000000E+00
  -1.330000      0.0000000E+00
  -1.320000      0.0000000E+00
  -1.310000      0.0000000E+00
  -1.300000      0.0000000E+00
  -1.290000      0.0000000E+00
  -1.280000      0.0000000E+00
  -1.270000      0.0000000E+00
  -1.260000      0.0000000E+00
  -1.250000      0.0000000E+00
  -1.240000      0.0000000E+00
  -1.230000      0.0000000E+00
  -1.220000      0.0000000E+00
  -1.210000      0.0000000E+00
  -1.200000      0.0000000E+00
  -1.190000      0.0000000E+00
  -1.180000      0.0000000E+00
  -1.170000      0.0000000E+00
  -1.160000      0.0000000E+00
  -1.150000      0.0000000E+00
  -1.140000      0.0000000E+00
  -1.130000      0.0000000E+00
  -1.120000      0.0000000E+00
  -1.110000      0.0000000E+00
  -1.100000      0.0000000E+00
  -1.090000      0.0000000E+00
  -1.080000      0.0000000E+00
  -1.070000      0.0000000E+00
  -1.060000      0.0000000E+00
  -1.050000      0.0000000E+00
  -1.040000      0.0000000E+00
  -1.030000      0.0000000E+00
  -1.020000      0.0000000E+00
  -1.010000      0.0000000E+00
  -1.000000      0.0000000E+00
 -0.9900000      0.0000000E+00
 -0.9800000      0.0000000E+00
 -0.9700000      0.0000000E+00
 -0.9600000      0.0000000E+00
 -0.9500000      0.0000000E+00
 -0.9400000      0.0000000E+00
 -0.9300000      0.0000000E+00
 -0.9200000      0.0000000E+00
 -0.9100000      0.0000000E+00
 -0.9000000      0.0000000E+00
 -0.8900000      0.0000000E+00
 -0.8800000      0.0000000E+00
 -0.8700000      0.0000000E+00
 -0.8600000      0.0000000E+00
 -0.8500000      0.0000000E+00
 -0.8400000      0.0000000E+00
 -0.8300000      0.0000000E+00
 -0.8200000      0.0000000E+00
 -0.8100000      0.0000000E+00
 -0.8000000      0.0000000E+00
 -0.7900000      0.0000000E+00
 -0.7800000      0.0000000E+00
 -0.7700000      0.0000000E+00
 -0.7600000      0.0000000E+00
 -0.7500000      0.0000000E+00
 -0.7400000      0.0000000E+00
 -0.7300000      0.0000000E+00
 -0.7200000      0.0000000E+00
 -0.7100000      0.0000000E+00
 -0.7000000      0.0000000E+00
 -0.6900000      0.0000000E+00
 -0.6800000      0.0000000E+00
 -0.6700000      0.0000000E+00
 -0.6600000      0.0000000E+00
 -0.6500000      0.0000000E+00
 -0.6400000      0.0000000E+00
 -0.6300000      0.0000000E+00
 -0.6200000      0.0000000E+00
 -0.6100000      0.0000000E+00
 -0.6000000      0.0000000E+00
 -0.5900000      0.0000000E+00
 -0.5800000      0.0000000E+00
 -0.5700000      0.0000000E+00
 -0.5600000      0.0000000E+00
 -0.5500000      0.0000000E+00
 -0.5400000      0.0000000E+00
 -0.5300000      0.0000000E+00
 -0.5200000      0.0000000E+00
 -0.5100000      0.0000000E+00
 -0.5000000      0.0000000E+00
 -0.4900000      0.0000000E+00
 -0.4800000      0.0000000E+00
 -0.4700000      0.0000000E+00
 -0.4600000      0.0000000E+00
 -0.4500000      0.0000000E+00
 -0.4400000      0.0000000E+00
 -0.4300000      0.0000000E+00
 -0.4200000      0.0000000E+00
 -0.4100000      0.0000000E+00
 -0.4000000      0.0000000E+00
 -0.3900000      0.0000000E+00
 -0.3800000      0.0000000E+00
 -0.3700000      0.0000000E+00
 -0.3600000      0.0000000E+00
 -0.3500000      0.0000000E+00
 -0.3400000      0.0000000E+00
 -0.3300000      0.0000000E+00
 -0.3200000      0.0000000E+00
 -0.3100000      0.0000000E+00
 -0.3000000      0.0000000E+00
 -0.2900000      0.0000000E+00
 -0.2800000      0.0000000E+00
 -0.2700000      0.0000000E+00
 -0.2600000      0.0000000E+00
 -0.2500000      0.0000000E+00
 -0.2400000      0.0000000E+00
 -0.2300000      0.0000000E+00
 -0.2200000      0.0000000E+00
 -0.2100000      0.0000000E+00
 -0.2000000      0.0000000E+00
 -0.1900000      0.0000000E+00
 -0.1800000      0.0000000E+00
 -0.1700000      0.0000000E+00
 -0.1600000      0.0000000E+00
 -0.1500000      0.0000000E+00
 -0.1400000      0.0000000E+00
 -0.1300000      0.0000000E+00
 -0.1200000      0.0000000E+00
 -0.1100000      0.0000000E+00
 -0.1000000      0.0000000E+00
 -9.0000004E-02  0.0000000E+00
 -7.9999998E-02  0.0000000E+00
 -7.0000000E-02  0.0000000E+00
 -5.9999999E-02  0.0000000E+00
 -5.0000001E-02  0.0000000E+00
 -3.9999999E-02  0.0000000E+00
 -2.9999999E-02  0.0000000E+00
 -2.0000000E-02  0.0000000E+00
 -9.9999998E-03  0.0000000E+00
 -3.4694470E-17  0.0000000E+00
  9.9999998E-03  0.0000000E+00
  2.0000000E-02  0.0000000E+00
  2.9999999E-02  0.0000000E+00
  3.9999999E-02  0.0000000E+00
  5.0000001E-02  0.0000000E+00
  5.9999999E-02  0.0000000E+00
  7.0000000E-02  0.0000000E+00
  7.9999998E-02  0.0000000E+00
  9.0000004E-02  0.0000000E+00
  0.1000000      0.0000000E+00
  0.1100000      0.0000000E+00
  0.1200000      0.0000000E+00
  0.1300000      0.0000000E+00
  0.1400000      0.0000000E+00
  0.1500000      0.0000000E+00
  0.1600000      0.0000000E+00
  0.1700000      0.0000000E+00
  0.1800000      0.0000000E+00
  0.1900000      0.0000000E+00
  0.2000000      0.0000000E+00
  0.2100000      0.0000000E+00
  0.2200000      0.0000000E+00
  0.2300000      0.0000000E+00
  0.2400000      0.0000000E+00
  0.2500000      0.0000000E+00
  0.2600000      0.0000000E+00
  0.2700000      0.0000000E+00
  0.2800000      0.0000000E+00
  0.2900000      0.0000000E+00
  0.3000000      0.0000000E+00
  0.3100000      0.0000000E+00
  0.3200000      0.0000000E+00
  0.3300000      0.0000000E+00
  0.3400000      0.0000000E+00
  0.3500000      0.0000000E+00
  0.3600000      0.0000000E+00
  0.3700000      0.0000000E+00
  0.3800000      0.0000000E+00
  0.3900000      0.0000000E+00
  0.4000000      0.0000000E+00
  0.4100000      0.0000000E+00
  0.4200000      0.0000000E+00
  0.4300000      0.0000000E+00
  0.4400000      0.0000000E+00
  0.4500000      0.0000000E+00
  0.4600000      0.0000000E+00
  0.4700000      0.0000000E+00
  0.4800000      0.0000000E+00
  0.4900000     -1.1964292E-38
  0.5000000     -1.5522347E-38
  0.5100000     -1.7949722E-38
  0.5200000     -1.3029036E-38
  0.5300000      0.0000000E+00
  0.5400000      2.0711624E-38
  0.5500000      4.9056483E-38
  0.5600000      8.1925659E-38
  0.5700000      1.2041990E-37
  0.5800000      1.6183117E-37
  0.5900000      2.0083199E-37
  0.6000000      2.3726550E-37
  0.6100000      2.6134270E-37
  0.6200000      2.6694021E-37
  0.6300000      2.5816911E-37
  0.6400000      2.3276357E-37
  0.6500000      1.8827162E-37
  0.6600000      1.1496353E-37
  0.6700000      0.0000000E+00
  0.6800000     -1.4228002E-37
  0.6900000     -2.9640655E-37
  0.7000000     -4.3234479E-37
  0.7100000     -5.6364977E-37
  0.7200000     -7.1382036E-37
  0.7300000     -8.6669857E-37
  0.7400000     -1.0138923E-36
  0.7500000     -1.1510264E-36
  0.7600000     -1.2542202E-36
  0.7700000     -1.3084433E-36
  0.7800000     -1.3130470E-36
  0.7900000     -1.2557550E-36
  0.8000000     -1.0740911E-36
  0.8100000     -7.2322525E-37
  0.8200000     -2.7979877E-37
  0.8300000      1.9536928E-37
  0.8400000      7.3873137E-37
  0.8500000      1.3757585E-36
  0.8600000      2.0937598E-36
  0.8700000      2.9132567E-36
  0.8800000      3.8264928E-36
  0.8900000      4.7108155E-36
  0.9000000      5.5570771E-36
  0.9100000      6.3098039E-36
  0.9200000      6.8927447E-36
  0.9300000      7.4104415E-36
  0.9400000      7.8976166E-36
  0.9500000      8.2592720E-36
  0.9600000      8.4800094E-36
  0.9700000      8.6460264E-36
  0.9800000      8.6549538E-36
  0.9900000      8.3549861E-36
   1.000000      7.8492889E-36
   1.010000      7.2392960E-36
   1.020000      6.2719970E-36
   1.030000      4.7563483E-36
   1.040000      2.8591848E-36
   1.050000      6.8049704E-37
   1.060000     -1.9786001E-36
   1.070000     -5.1430332E-36
   1.080000     -8.7447202E-36
   1.090000     -1.3502111E-35
   1.100000     -1.9626208E-35
   1.110000     -2.6512388E-35
   1.120000     -3.3968030E-35
   1.130000     -4.1897041E-35
   1.140000     -5.0214765E-35
   1.150000     -5.9292762E-35
   1.160000     -6.9199728E-35
   1.170000     -7.9057809E-35
   1.180000     -8.7796755E-35
   1.190000     -9.5261201E-35
   1.200000     -1.0191553E-34
   1.210000     -1.0752430E-34
   1.220000     -1.1106395E-34
   1.230000     -1.1193886E-34
   1.240000     -1.1042328E-34
   1.250000     -1.0611300E-34
   1.260000     -9.8606034E-35
   1.270000     -8.8126502E-35
   1.280000     -7.4278128E-35
   1.290000     -5.6846712E-35
   1.300000     -3.5842863E-35
   1.310000     -1.0007455E-35
   1.320000      2.0103330E-35
   1.330000      5.3750461E-35
   1.340000      9.1915864E-35
   1.350000      1.3912039E-34
   1.360000      1.9510665E-34
   1.370000      2.5586409E-34
   1.380000      3.1983631E-34
   1.390000      3.8617685E-34
   1.400000      4.5429270E-34
   1.410000      5.2370592E-34
   1.420000      5.9145540E-34
   1.430000      6.5247972E-34
   1.440000      7.0936332E-34
   1.450000      7.6499014E-34
   1.460000      8.1847633E-34
   1.470000      8.6476509E-34
   1.480000      8.9509725E-34
   1.490000      9.1020254E-34
   1.500000      9.1646177E-34
   1.510000      9.1255785E-34
   1.520000      8.9658784E-34
   1.530000      8.6938166E-34
   1.540000      8.2799379E-34
   1.550000      7.6856608E-34
   1.560000      6.8944557E-34
   1.570000      5.9147740E-34
   1.580000      4.7409221E-34
   1.590000      3.3227563E-34
   1.600000      1.6478883E-34
   1.610000     -2.6856519E-35
   1.620000     -2.4335428E-34
   1.630000     -4.8963413E-34
   1.640000     -7.6724663E-34
   1.650000     -1.0693489E-33
   1.660000     -1.3950684E-33
   1.670000     -1.7467993E-33
   1.680000     -2.1215059E-33
   1.690000     -2.5167457E-33
   1.700000     -2.9312733E-33
   1.710000     -3.3600632E-33
   1.720000     -3.8018518E-33
   1.730000     -4.2533169E-33
   1.740000     -4.7045859E-33
   1.750000     -5.1503694E-33
   1.760000     -5.5843112E-33
   1.770000     -5.9995197E-33
   1.780000     -6.3871668E-33
   1.790000     -6.7385963E-33
   1.800000     -7.0447303E-33
   1.810000     -7.2954059E-33
   1.820000     -7.4810084E-33
   1.830000     -7.5902530E-33
   1.840000     -7.6125154E-33
   1.850000     -7.5381749E-33
   1.860000     -7.3557147E-33
   1.870000     -7.0543326E-33
   1.880000     -6.6266834E-33
   1.890000     -6.0634199E-33
   1.900000     -5.3527509E-33
   1.910000     -4.4863168E-33
   1.920000     -3.4591210E-33
   1.930000     -2.2671556E-33
   1.940000     -9.0524875E-34
   1.950000      6.3095614E-34
   1.960000      2.3406693E-33
   1.970000      4.2219812E-33
   1.980000      6.2709582E-33
   1.990000      8.4815334E-33
   2.000000      1.0845317E-32
   2.010000      1.3351281E-32
   2.020000      1.5985733E-32
   2.030000      1.8731811E-32
   2.040000      2.1569468E-32
   2.050000      2.4477066E-32
   2.060000      2.7427486E-32
   2.070000      3.0392474E-32
   2.080000      3.3342183E-32
   2.090000      3.6239506E-32
   2.100000      3.9046704E-32
   2.110000      4.1723708E-32
   2.120000      4.4228551E-32
   2.130000      4.6517036E-32
   2.140000      4.8541234E-32
   2.150000      5.0252201E-32
   2.160000      5.1599559E-32
   2.170000      5.2532020E-32
   2.180000      5.2997680E-32
   2.190000      5.2944601E-32
   2.200000      5.2321688E-32
   2.210000      5.1078209E-32
   2.220000      4.9165172E-32
   2.230000      4.6536458E-32
   2.240000      4.3148701E-32
   2.250000      3.8962460E-32
   2.260000      3.3942705E-32
   2.270000      2.8059726E-32
   2.280000      2.1289878E-32
   2.290000      1.3616377E-32
   2.300000      5.0300406E-33
   2.310000     -4.4698625E-33
   2.320000     -1.4874908E-32
   2.330000     -2.6166875E-32
   2.340000     -3.8316966E-32
   2.350000     -5.1285843E-32
   2.360000     -6.5021165E-32
   2.370000     -7.9458405E-32
   2.380000     -9.4521659E-32
   2.390000     -1.1012150E-31
   2.400000     -1.2615536E-31
   2.410000     -1.4250748E-31
   2.420000     -1.5904892E-31
   2.430000     -1.7563771E-31
   2.440000     -1.9211921E-31
   2.450000     -2.0832659E-31
   2.460000     -2.2408138E-31
   2.470000     -2.3919427E-31
   2.480000     -2.5346606E-31
   2.490000     -2.6668868E-31
   2.500000     -2.7864659E-31
   2.510000     -2.8911789E-31
   2.520000     -2.9787605E-31
   2.530000     -3.0469176E-31
   2.540000     -3.0933432E-31
   2.550000     -3.1157421E-31
   2.560000     -3.1118481E-31
   2.570000     -3.0794451E-31
   2.580000     -3.0163921E-31
   2.590000     -2.9206469E-31
   2.600000     -2.7902919E-31
   2.610000     -2.6235595E-31
   2.620000     -2.4188585E-31
   2.630000     -2.1747971E-31
   2.640000     -1.8902143E-31
   2.650000     -1.5642049E-31
   2.660000     -1.1961456E-31
   2.670000     -7.8572117E-32
   2.680000     -3.3295055E-32
   2.690000      1.6178902E-32
   2.700000      6.9773806E-32
   2.710000      1.2737326E-31
   2.720000      1.8881854E-31
   2.730000      2.5390664E-31
   2.740000      3.2238857E-31
   2.750000      3.9396813E-31
   2.760000      4.6830087E-31
   2.770000      5.4499322E-31
   2.780000      6.2360229E-31
   2.790000      7.0363568E-31
   2.800000      7.8455201E-31
   2.810000      8.6576193E-31
   2.820000      9.4662889E-31
   2.830000      1.0264719E-30
   2.840000      1.1045667E-30
   2.850000      1.1801496E-30
   2.860000      1.2524203E-30
   2.870000      1.3205457E-30
   2.880000      1.3836649E-30
   2.890000      1.4408929E-30
   2.900000      1.4913271E-30
   2.910000      1.5340529E-30
   2.920000      1.5681495E-30
   2.930000      1.5926970E-30
   2.940000      1.6067834E-30
   2.950000      1.6095117E-30
   2.960000      1.6000075E-30
   2.970000      1.5774281E-30
   2.980000      1.5409689E-30
   2.990000      1.4898726E-30
   3.000000      1.4234377E-30
   3.010000      1.3410263E-30
   3.020000      1.2420732E-30
   3.030000      1.1260939E-30
   3.040000      9.9269294E-31
   3.050000      8.4157223E-31
   3.060000      6.7253906E-31
   3.070000      4.8551382E-31
   3.080000      2.8053730E-31
   3.090000      5.7778116E-32
   3.100000     -1.8246048E-31
   3.110000     -4.3973452E-31
   3.120000     -7.1345327E-31
   3.130000     -1.0028745E-30
   3.140000     -1.3070993E-30
   3.150000     -1.6250690E-30
   3.160000     -1.9555614E-30
   3.170000     -2.2971885E-30
   3.180000     -2.6483963E-30
   3.190000     -3.0074634E-30
   3.200000     -3.3725027E-30
   3.210000     -3.7414631E-30
   3.220000     -4.1121328E-30
   3.230000     -4.4821430E-30
   3.240000     -4.8489755E-30
   3.250000     -5.2099685E-30
   3.260000     -5.5623257E-30
   3.270000     -5.9031257E-30
   3.280000     -6.2293335E-30
   3.290000     -6.5378145E-30
   3.300000     -6.8253445E-30
   3.310000     -7.0886312E-30
   3.320000     -7.3243244E-30
   3.330000     -7.5290357E-30
   3.340000     -7.6993586E-30
   3.350000     -7.8318851E-30
   3.360000     -7.9232276E-30
   3.370000     -7.9700390E-30
   3.380000     -7.9690347E-30
   3.390000     -7.9170128E-30
   3.400000     -7.8108782E-30
   3.410000     -7.6476662E-30
   3.420000     -7.4245600E-30
   3.430000     -7.1389213E-30
   3.440000     -6.7883057E-30
   3.450000     -6.3704910E-30
   3.460000     -5.8834967E-30
   3.470000     -5.3256097E-30
   3.480000     -4.6954037E-30
   3.490000     -3.9917644E-30
   3.500000     -3.2139095E-30
   3.510000     -2.3614113E-30
   3.520000     -1.4342177E-30
   3.530000     -4.3267290E-31
   3.540000      6.4246300E-31
   3.550000      1.7899937E-30
   3.560000      3.0082700E-30
   3.570000      4.2951721E-30
   3.580000      5.6480912E-30
   3.590000      7.0639198E-30
   3.600000      8.5390355E-30
   3.610000      1.0069290E-29
   3.620000      1.1650002E-29
   3.630000      1.3275950E-29
   3.640000      1.4941363E-29
   3.650000      1.6639931E-29
   3.660000      1.8364789E-29
   3.670000      2.0108538E-29
   3.680000      2.1863241E-29
   3.690000      2.3620434E-29
   3.700000      2.5371142E-29
   3.710000      2.7105890E-29
   3.720000      2.8814732E-29
   3.730000      3.0487251E-29
   3.740000      3.2112610E-29
   3.750000      3.3679558E-29
   3.760000      3.5176472E-29
   3.770000      3.6591375E-29
   3.780000      3.7911982E-29
   3.790000      3.9125733E-29
   3.800000      4.0219824E-29
   3.810000      4.1181254E-29
   3.820000      4.1996861E-29
   3.830000      4.2653369E-29
   3.840000      4.3137424E-29
   3.850000      4.3435655E-29
   3.860000      4.3534717E-29
   3.870000      4.3421327E-29
   3.880000      4.3082346E-29
   3.890000      4.2504801E-29
   3.900000      4.1675977E-29
   3.910000      4.0583449E-29
   3.920000      3.9215151E-29
   3.930000      3.7559459E-29
   3.940000      3.5605236E-29
   3.950000      3.3341916E-29
   3.960000      3.0759572E-29
   3.970000      2.7848992E-29
   3.980000      2.4601764E-29
   3.990000      2.1010338E-29
   4.000000      1.7068122E-29
   4.010000      1.2769557E-29
   4.020000      8.1101978E-30
   4.030000      3.0867912E-30
   4.040000     -2.3026368E-30
   4.050000     -8.0587063E-30
   4.060000     -1.4180607E-29
   4.070000     -2.0666021E-29
   4.080000     -2.7511043E-29
   4.090000     -3.4710115E-29
   4.100000     -4.2255965E-29
   4.110000     -5.0139534E-29
   4.120000     -5.8349906E-29
   4.130000     -6.6874276E-29
   4.140000     -7.5697852E-29
   4.150000     -8.4803829E-29
   4.160000     -9.4173340E-29
   4.170000     -1.0378539E-28
   4.180000     -1.1361679E-28
   4.190000     -1.2364215E-28
   4.200000     -1.3383381E-28
   4.210000     -1.4416180E-28
   4.220000     -1.5459378E-28
   4.230000     -1.6509501E-28
   4.240000     -1.7562834E-28
   4.250000     -1.8615411E-28
   4.260000     -1.9663013E-28
   4.270000     -2.0701173E-28
   4.280000     -2.1725159E-28
   4.290000     -2.2729987E-28
   4.300000     -2.3710403E-28
   4.310000     -2.4660895E-28
   4.320000     -2.5575695E-28
   4.330000     -2.6448767E-28
   4.340000     -2.7273816E-28
   4.350000     -2.8044294E-28
   4.360000     -2.8753407E-28
   4.370000     -2.9394109E-28
   4.380000     -2.9959119E-28
   4.390000     -3.0440929E-28
   4.400000     -3.0831806E-28
   4.410000     -3.1123818E-28
   4.420000     -3.1308834E-28
   4.430000     -3.1378548E-28
   4.440000     -3.1324487E-28
   4.450000     -3.1138028E-28
   4.460000     -3.0810430E-28
   4.470000     -3.0332836E-28
   4.480000     -2.9696304E-28
   4.490000     -2.8891836E-28
   4.500000     -2.7910389E-28
   4.510000     -2.6742914E-28
   4.520000     -2.5380374E-28
   4.530000     -2.3813782E-28
   4.540000     -2.2034230E-28
   4.550000     -2.0032924E-28
   4.560000     -1.7801219E-28
   4.570000     -1.5330666E-28
   4.580000     -1.2613046E-28
   4.590000     -9.6404235E-29
   4.600000     -6.4051916E-29
   4.610000     -2.9001294E-29
   4.620000      8.8154779E-30
   4.630000      4.9461185E-29
   4.640000      9.2992950E-29
   4.650000      1.3946156E-28
   4.660000      1.8891068E-28
   4.670000      2.4137613E-28
   4.680000      2.9688509E-28
   4.690000      3.5545514E-28
   4.700000      4.1709359E-28
   4.710000      4.8179632E-28
   4.720000      5.4954707E-28
   4.730000      6.2031632E-28
   4.740000      6.9406033E-28
   4.750000      7.7072014E-28
   4.760000      8.5022074E-28
   4.770000      9.3246980E-28
   4.780000      1.0173566E-27
   4.790000      1.1047513E-27
   4.800000      1.1945036E-27
   4.810000      1.2864420E-27
   4.820000      1.3803722E-27
   4.830000      1.4760766E-27
   4.840000      1.5733134E-27
   4.850000      1.6718150E-27
   4.860000      1.7712878E-27
   4.870000      1.8714101E-27
   4.880000      1.9718328E-27
   4.890000      2.0721766E-27
   4.900000      2.1720330E-27
   4.910000      2.2709622E-27
   4.920000      2.3684932E-27
   4.930000      2.4641220E-27
   4.940000      2.5573124E-27
   4.950000      2.6474944E-27
   4.960000      2.7340644E-27
   4.970000      2.8163848E-27
   4.980000      2.8937835E-27
   4.990000      2.9655544E-27
   5.000000      3.0309571E-27
   5.010000      3.0892172E-27
   5.020000      3.1395275E-27
   5.030000      3.1810485E-27
   5.040000      3.2129086E-27
   5.050000      3.2342057E-27
   5.060000      3.2440098E-27
   5.070000      3.2413628E-27
   5.080000      3.2252821E-27
   5.090000      3.1947615E-27
   5.100000      3.1487749E-27
   5.110000      3.0862785E-27
   5.120000      3.0062143E-27
   5.130000      2.9075140E-27
   5.140000      2.7891017E-27
   5.150000      2.6498988E-27
   5.160000      2.4888290E-27
   5.170000      2.3048216E-27
   5.180000      2.0968175E-27
   5.190000      1.8637746E-27
   5.200000      1.6046738E-27
   5.210000      1.3185246E-27
   5.220000      1.0043717E-27
   5.230000      6.6130185E-28
   5.240000      2.8845103E-28
   5.250000     -1.1498808E-28
   5.260000     -5.4975805E-28
   5.270000     -1.0165295E-27
   5.280000     -1.5158918E-27
   5.290000     -2.0483438E-27
   5.300000     -2.6142860E-27
   5.310000     -3.2140100E-27
   5.320000     -3.8476899E-27
   5.330000     -4.5153705E-27
   5.340000     -5.2169602E-27
   5.350000     -5.9522171E-27
   5.360000     -6.7207405E-27
   5.370000     -7.5219605E-27
   5.380000     -8.3551240E-27
   5.390000     -9.2192880E-27
   5.400000     -1.0113309E-26
   5.410000     -1.1035827E-26
   5.420000     -1.1985259E-26
   5.430000     -1.2959791E-26
   5.440000     -1.3957362E-26
   5.450000     -1.4975660E-26
   5.460000     -1.6012105E-26
   5.470000     -1.7063849E-26
   5.480000     -1.8127763E-26
   5.490000     -1.9200428E-26
   5.500000     -2.0278130E-26
   5.510000     -2.1356856E-26
   5.520000     -2.2432283E-26
   5.530000     -2.3499777E-26
   5.540000     -2.4554390E-26
   5.550000     -2.5590853E-26
   5.560000     -2.6603579E-26
   5.570000     -2.7586663E-26
   5.580000     -2.8533879E-26
   5.590000     -2.9438687E-26
   5.600000     -3.0294228E-26
   5.610000     -3.1093341E-26
   5.620000     -3.1828568E-26
   5.630000     -3.2492148E-26
   5.640000     -3.3076044E-26
   5.650000     -3.3571954E-26
   5.660000     -3.3971315E-26
   5.670000     -3.4265323E-26
   5.680000     -3.4444961E-26
   5.690000     -3.4501007E-26
   5.700000     -3.4424066E-26
   5.710000     -3.4204590E-26
   5.720000     -3.3832910E-26
   5.730000     -3.3299264E-26
   5.740000     -3.2593831E-26
   5.750000     -3.1706766E-26
   5.760000     -3.0628240E-26
   5.770000     -2.9348479E-26
   5.780000     -2.7857819E-26
   5.790000     -2.6146733E-26
   5.800000     -2.4205892E-26
   5.810000     -2.2026223E-26
   5.820000     -1.9598950E-26
   5.830000     -1.6915660E-26
   5.840000     -1.3968362E-26
   5.850000     -1.0749542E-26
   5.860000     -7.2522340E-27
   5.870000     -3.4700920E-27
   5.880000      6.0255525E-28
   5.890000      4.9706280E-27
   5.900000      9.6382186E-27
   5.910000      1.4608525E-26
   5.920000      1.9883781E-26
   5.930000      2.5465168E-26
   5.940000      3.1352740E-26
   5.950000      3.7545357E-26
   5.960000      4.4040591E-26
   5.970000      5.0834665E-26
   5.980000      5.7922358E-26
   5.990000      6.5296932E-26
   6.000000      7.2950079E-26
   6.010000      8.0871795E-26
   6.020000      8.9050348E-26
   6.030000      9.7472190E-26
   6.040000      1.0612187E-25
   6.050000      1.1498200E-25
   6.060000      1.2403318E-25
   6.070000      1.3325392E-25
   6.080000      1.4262058E-25
   6.090000      1.5210735E-25
   6.100000      1.6168614E-25
   6.110000      1.7132662E-25
   6.120000      1.8099615E-25
   6.130000      1.9065971E-25
   6.140000      2.0027994E-25
   6.150000      2.0981708E-25
   6.160000      2.1922903E-25
   6.170000      2.2847128E-25
   6.180000      2.3749693E-25
   6.190000      2.4625681E-25
   6.200000      2.5469942E-25
   6.210000      2.6277100E-25
   6.220000      2.7041560E-25
   6.230000      2.7757516E-25
   6.240000      2.8418956E-25
   6.250000      2.9019676E-25
   6.260000      2.9553291E-25
   6.270000      3.0013241E-25
   6.280000      3.0392814E-25
   6.290000      3.0685158E-25
   6.300000      3.0883296E-25
   6.310000      3.0980143E-25
   6.320000      3.0968534E-25
   6.330000      3.0841239E-25
   6.340000      3.0590993E-25
   6.350000      3.0210508E-25
   6.360000      2.9692512E-25
   6.370000      2.9029776E-25
   6.380000      2.8215134E-25
   6.390000      2.7241529E-25
   6.400000      2.6102039E-25
   6.410000      2.4789905E-25
   6.420000      2.3298575E-25
   6.430000      2.1621748E-25
   6.440000      1.9753400E-25
   6.450000      1.7687832E-25
   6.460000      1.5419706E-25
   6.470000      1.2944097E-25
   6.480000      1.0256529E-25
   6.490000      7.3530280E-26
   6.500000      4.2301621E-26
   6.510000      8.8508845E-27
   6.520000     -2.6843975E-26
   6.530000     -6.4798150E-26
   6.540000     -1.0501940E-25
   6.550000     -1.4750773E-25
   6.560000     -1.9225482E-25
   6.570000     -2.3924349E-25
   6.580000     -2.8844736E-25
   6.590000     -3.3983023E-25
   6.600000     -3.9334572E-25
   6.610000     -4.4893670E-25
   6.620000     -5.0653503E-25
   6.630000     -5.6606100E-25
   6.640000     -6.2742289E-25
   6.650000     -6.9051667E-25
   6.660000     -7.5522565E-25
   6.670000     -8.2142001E-25
   6.680000     -8.8895651E-25
   6.690000     -9.5767852E-25
   6.700000     -1.0274151E-24
   6.710000     -1.0979816E-24
   6.720000     -1.1691787E-24
   6.730000     -1.2407930E-24
   6.740000     -1.3125963E-24
   6.750000     -1.3843461E-24
   6.760000     -1.4557849E-24
   6.770000     -1.5266410E-24
   6.780000     -1.5966285E-24
   6.790000     -1.6654469E-24
   6.800000     -1.7327821E-24
   6.810000     -1.7983057E-24
   6.820000     -1.8616764E-24
   6.830000     -1.9225404E-24
   6.840000     -1.9805308E-24
   6.850000     -2.0352692E-24
   6.860000     -2.0863661E-24
   6.870000     -2.1334217E-24
   6.880000     -2.1760265E-24
   6.890000     -2.2137622E-24
   6.900000     -2.2462029E-24
   6.910000     -2.2729163E-24
   6.920000     -2.2934642E-24
   6.930000     -2.3074039E-24
   6.940000     -2.3142905E-24
   6.950000     -2.3136766E-24
   6.960000     -2.3051149E-24
   6.970000     -2.2881601E-24
   6.980000     -2.2623695E-24
   6.990000     -2.2273046E-24
   7.000000     -2.1825348E-24
   7.010000     -2.1276366E-24
   7.020000     -2.0621974E-24
   7.030000     -1.9858169E-24
   7.040000     -1.8981096E-24
   7.050000     -1.7987056E-24
   7.060000     -1.6872549E-24