  -2.600000      0.0000000E+00
  -2.590000      0.0000000E+00
  -2.580000      0.0000000E+00
  -2.570000      0.0000000E+00
  -2.560000      0.0000000E+00
  -2.550000      0.0000000E+00
  -2.540000      0.0000000E+00
  -2.530000      0.0000000E+00
  -2.520000      0.0000000E+00
  -2.510000      0.0000000E+00
  -2.500000      0.0000000E+00
  -2.490000      0.0000000E+00
  -2.480000      0.0000000E+00
  -2.470000      0.0000000E+00
  -2.460000      0.0000000E+00
  -2.450000      0.0000000E+00
  -2.440000      0.0000000E+00
  -2.430000      0.0000000E+00
  -2.420000      0.0000000E+00
  -2.410000      0.0000000E+00
  -2.400000      0.0000000E+00
  -2.390000      0.0000000E+00
  -2.380000      0.0000000E+00
  -2.370000      0.0000000E+00
  -2.360000      0.0000000E+00
  -2.350000      0.0000000E+00
  -2.340000      0.0000000E+00
  -2.330000      0.0000000E+00
  -2.320000      0.0000000E+00
  -2.310000      0.0000000E+00
  -2.300000      0.0000000E+00
  -2.290000      0.0000000E+00
  -2.280000      0.0000000E+00
  -2.270000      0.0000000E+00
  -2.260000      0.0000000E+00
  -2.250000      0.0000000E+00
  -2.240000      0.0000000E+00
  -2.230000      0.0000000E+00
  -2.220000      0.0000000E+00
  -2.210000      0.0000000E+00
  -2.200000      0.0000000E+00
  -2.190000      0.0000000E+00
  -2.180000      0.0000000E+00
  -2.170000      0.0000000E+00
  -2.160000      0.0000000E+00
  -2.150000      0.0000000E+00
  -2.140000      0.0000000E+00
  -2.130000      0.0000000E+00
  -2.120000      0.0000000E+00
  -2.110000      0.0000000E+00
  -2.100000      0.0000000E+00
  -2.090000      0.0000000E+00
  -2.080000      0.0000000E+00
  -2.070000      0.0000000E+00
  -2.060000      0.0000000E+00
  -2.050000      0.0000000E+00
  -2.040000      0.0000000E+00
  -2.030000      0.0000000E+00
  -2.020000      0.0000000E+00
  -2.010000      0.0000000E+00
  -2.000000      0.0000000E+00
  -1.990000      0.0000000E+00
  -1.980000      0.0000000E+00
  -1.970000      0.0000000E+00
  -1.960000      0.0000000E+00
  -1.950000      0.0000000E+00
  -1.940000      0.0000000E+00
  -1.930000      0.0000000E+00
  -1.920000      0.0000000E+00
  -1.910000      0.0000000E+00
  -1.900000      0.0000000E+00
  -1.890000      0.0000000E+00
  -1.880000      0.0000000E+00
  -1.870000      0.0000000E+00
  -1.860000      0.0000000E+00
  -1.850000      0.0000000E+00
  -1.840000      0.0000000E+00
  -1.830000      0.0000000E+00
  -1.820000      0.0000000E+00
  -1.810000      0.0000000E+00
  -1.800000      0.0000000E+00
  -1.790000      0.0000000E+00
  -1.780000      0.0000000E+00
  -1.770000      0.0000000E+00
  -1.760000      0.0000000E+00
  -1.750000      0.0000000E+00
  -1.740000      0.0000000E+00
  -1.730000      0.0000000E+00
  -1.720000      0.0000000E+00
  -1.710000      0.0000000E+00
  -1.700000      0.0000000E+00
  -1.690000      0.0000000E+00
  -1.680000      0.0000000E+00
  -1.670000      0.0000000E+00
  -1.660000      0.0000000E+00
  -1.650000      0.0000000E+00
  -1.640000      0.0000000E+00
  -1.630000      0.0000000E+00
  -1.620000      0.0000000E+00
  -1.610000      0.0000000E+00
  -1.600000      0.0000000E+00
  -1.590000      0.0000000E+00
  -1.580000      0.0000000E+00
  -1.570000      0.0000000E+00
  -1.560000      0.0000000E+00
  -1.550000      0.0000000E+00
  -1.540000      0.0000000E+00
  -1.530000      0.0000000E+00
  -1.520000      0.0000000E+00
  -1.510000      0.0000000E+00
  -1.500000      0.0000000E+00
  -1.490000      0.0000000E+00
  -1.480000      0.0000000E+00
  -1.470000      0.0000000E+00
  -1.460000      0.0000000E+00
  -1.450000      0.0000000E+00
  -1.440000      0.0000000E+00
  -1.430000      0.0000000E+00
  -1.420000      0.0000000E+00
  -1.410000      0.0000000E+00
  -1.400000      0.0000000E+00
  -1.390000      0.0000000E+00
  -1.380000      0.0000000E+00
  -1.370000      0.0000000E+00
  -1.360000      0.0000000E+00
  -1.350000      0.0000000E+00
  -1.340000      0.0000000E+00
  -1.330000      0.0000000E+00
  -1.320000      0.0000000E+00
  -1.310000      0.0000000E+00
  -1.300000      0.0000000E+00
  -1.290000      0.0000000E+00
  -1.280000      0.0000000E+00
  -1.270000      0.0000000E+00
  -1.260000      0.0000000E+00
  -1.250000      0.0000000E+00
  -1.240000      0.0000000E+00
  -1.230000      0.0000000E+00
  -1.220000      0.0000000E+00
  -1.210000      0.0000000E+00
  -1.200000      0.0000000E+00
  -1.190000      0.0000000E+00
  -1.180000      0.0000000E+00
  -1.170000      0.0000000E+00
  -1.160000      0.0000000E+00
  -1.150000      0.0000000E+00
  -1.140000      0.0000000E+00
  -1.130000      0.0000000E+00
  -1.120000      0.0000000E+00
  -1.110000      0.0000000E+00
  -1.100000      0.0000000E+00
  -1.090000      0.0000000E+00
  -1.080000      0.0000000E+00
  -1.070000      0.0000000E+00
  -1.060000      0.0000000E+00
  -1.050000      0.0000000E+00
  -1.040000      0.0000000E+00
  -1.030000      0.0000000E+00
  -1.020000      0.0000000E+00
  -1.010000      0.0000000E+00
  -1.000000      0.0000000E+00
 -0.9900000      0.0000000E+00
 -0.9800000      0.0000000E+00
 -0.9700000      0.0000000E+00
 -0.9600000      0.0000000E+00
 -0.9500000      0.0000000E+00
 -0.9400000      0.0000000E+00
 -0.9300000      0.0000000E+00
 -0.9200000      0.0000000E+00
 -0.9100000      0.0000000E+00
 -0.9000000      0.0000000E+00
 -0.8900000      0.0000000E+00
 -0.8800000      0.0000000E+00
 -0.8700000      0.0000000E+00
 -0.8600000      0.0000000E+00
 -0.8500000      0.0000000E+00
 -0.8400000      0.0000000E+00
 -0.8300000      0.0000000E+00
 -0.8200000      0.0000000E+00
 -0.8100000      0.0000000E+00
 -0.8000000      0.0000000E+00
 -0.7900000      0.0000000E+00
 -0.7800000      0.0000000E+00
 -0.7700000      0.0000000E+00
 -0.7600000      0.0000000E+00
 -0.7500000      0.0000000E+00
 -0.7400000      0.0000000E+00
 -0.7300000      0.0000000E+00
 -0.7200000      0.0000000E+00
 -0.7100000      0.0000000E+00
 -0.7000000      0.0000000E+00
 -0.6900000      0.0000000E+00
 -0.6800000      0.0000000E+00
 -0.6700000      0.0000000E+00
 -0.6600000      0.0000000E+00
 -0.6500000      0.0000000E+00
 -0.6400000      0.0000000E+00
 -0.6300000      0.0000000E+00
 -0.6200000      0.0000000E+00
 -0.6100000      0.0000000E+00
 -0.6000000      0.0000000E+00
 -0.5900000      0.0000000E+00
 -0.5800000      0.0000000E+00
 -0.5700000      0.0000000E+00
 -0.5600000      0.0000000E+00
 -0.5500000      0.0000000E+00
 -0.5400000      0.0000000E+00
 -0.5300000      0.0000000E+00
 -0.5200000      0.0000000E+00
 -0.5100000      0.0000000E+00
 -0.5000000      0.0000000E+00
 -0.4900000      0.0000000E+00
 -0.4800000      0.0000000E+00
 -0.4700000      0.0000000E+00
 -0.4600000      0.0000000E+00
 -0.4500000      0.0000000E+00
 -0.4400000      0.0000000E+00
 -0.4300000      0.0000000E+00
 -0.4200000      0.0000000E+00
 -0.4100000      0.0000000E+00
 -0.4000000      0.0000000E+00
 -0.3900000      0.0000000E+00
 -0.3800000      0.0000000E+00
 -0.3700000      0.0000000E+00
 -0.3600000      0.0000000E+00
 -0.3500000      0.0000000E+00
 -0.3400000      0.0000000E+00
 -0.3300000      0.0000000E+00
 -0.3200000      0.0000000E+00
 -0.3100000      0.0000000E+00
 -0.3000000      0.0000000E+00
 -0.2900000      0.0000000E+00
 -0.2800000      0.0000000E+00
 -0.2700000      0.0000000E+00
 -0.2600000      0.0000000E+00
 -0.2500000      0.0000000E+00
 -0.2400000      0.0000000E+00
 -0.2300000      0.0000000E+00
 -0.2200000      0.0000000E+00
 -0.2100000      0.0000000E+00
 -0.2000000      0.0000000E+00
 -0.1900000      0.0000000E+00
 -0.1800000      0.0000000E+00
 -0.1700000      0.0000000E+00
 -0.1600000      0.0000000E+00
 -0.1500000      0.0000000E+00
 -0.1400000      0.0000000E+00
 -0.1300000      0.0000000E+00
 -0.1200000      0.0000000E+00
 -0.1100000      0.0000000E+00
 -0.1000000      0.0000000E+00
 -9.0000004E-02  0.0000000E+00
 -7.9999998E-02  0.0000000E+00
 -7.0000000E-02  0.0000000E+00
 -5.9999999E-02  0.0000000E+00
 -5.0000001E-02  0.0000000E+00
 -3.9999999E-02  0.0000000E+00
 -2.9999999E-02  0.0000000E+00
 -2.0000000E-02  0.0000000E+00
 -9.9999998E-03  0.0000000E+00
 -3.4694470E-17  0.0000000E+00
  9.9999998E-03  0.0000000E+00
  2.0000000E-02  0.0000000E+00
  2.9999999E-02  0.0000000E+00
  3.9999999E-02  0.0000000E+00
  5.0000001E-02  0.0000000E+00
  5.9999999E-02  0.0000000E+00
  7.0000000E-02  0.0000000E+00
  7.9999998E-02  0.0000000E+00
  9.0000004E-02  0.0000000E+00
  0.1000000      0.0000000E+00
  0.1100000      0.0000000E+00
  0.1200000      0.0000000E+00
  0.1300000      0.0000000E+00
  0.1400000      0.0000000E+00
  0.1500000      0.0000000E+00
  0.1600000      0.0000000E+00
  0.1700000      0.0000000E+00
  0.1800000      0.0000000E+00
  0.1900000      0.0000000E+00
  0.2000000      0.0000000E+00
  0.2100000      0.0000000E+00
  0.2200000      0.0000000E+00
  0.2300000      0.0000000E+00
  0.2400000      0.0000000E+00
  0.2500000      0.0000000E+00
  0.2600000      0.0000000E+00
  0.2700000      0.0000000E+00
  0.2800000      0.0000000E+00
  0.2900000      0.0000000E+00
  0.3000000      0.0000000E+00
  0.3100000      0.0000000E+00
  0.3200000      0.0000000E+00
  0.3300000      0.0000000E+00
  0.3400000      0.0000000E+00
  0.3500000      0.0000000E+00
  0.3600000      0.0000000E+00
  0.3700000      0.0000000E+00
  0.3800000      0.0000000E+00
  0.3900000      0.0000000E+00
  0.4000000      0.0000000E+00
  0.4100000      0.0000000E+00
  0.4200000      1.2616865E-38
  0.4300000      1.6489553E-38
  0.4400000      1.8048578E-38
  0.4500000      1.7141435E-38
  0.4600000      1.2425129E-38
  0.4700000      0.0000000E+00
  0.4800000     -1.4836716E-38
  0.4900000     -2.9977720E-38
  0.5000000     -4.5981028E-38
  0.5100000     -6.2679256E-38
  0.5200000     -7.4411123E-38
  0.5300000     -7.8586040E-38
  0.5400000     -8.1689002E-38
  0.5500000     -7.8161592E-38
  0.5600000     -6.5462414E-38
  0.5700000     -3.4458322E-38
  0.5800000      2.0957280E-38
  0.5900000      9.2727053E-38
  0.6000000      1.7687170E-37
  0.6100000      2.3609325E-37
  0.6200000      2.5960092E-37
  0.6300000      2.6065943E-37
  0.6400000      2.2997200E-37
  0.6500000      1.4875644E-37
  0.6600000      0.0000000E+00
  0.6700000     -1.8182201E-37
  0.6800000     -3.7340532E-37
  0.6900000     -5.5901935E-37
  0.7000000     -7.1715832E-37
  0.7100000     -8.5348995E-37
  0.7200000     -9.4432414E-37
  0.7300000     -9.6565688E-37
  0.7400000     -9.3131390E-37
  0.7500000     -8.4322492E-37
  0.7600000     -7.1523758E-37
  0.7700000     -5.4522496E-37
  0.7800000     -3.0420069E-37
  0.7900000      1.5777807E-38
  0.8000000      3.6279808E-37
  0.8100000      7.4476256E-37
  0.8200000      1.1104147E-36
  0.8300000      1.5263976E-36
  0.8400000      2.0167303E-36
  0.8500000      2.4247837E-36
  0.8600000      2.7271415E-36
  0.8700000      3.0402015E-36
  0.8800000      3.5369211E-36
  0.8900000      4.3669734E-36
  0.9000000      5.3680222E-36
  0.9100000      6.0627671E-36
  0.9200000      6.5525552E-36
  0.9300000      6.6871150E-36
  0.9400000      6.1756860E-36
  0.9500000      5.3334422E-36
  0.9600000      4.1972918E-36
  0.9700000      3.0729459E-36
  0.9800000      1.7530492E-36
  0.9900000     -2.4445360E-37
   1.000000     -2.5221537E-36
   1.010000     -4.9906160E-36
   1.020000     -7.8471867E-36
   1.030000     -1.1082302E-35
   1.040000     -1.4674559E-35
   1.050000     -1.8028944E-35
   1.060000     -2.0881920E-35
   1.070000     -2.3256562E-35
   1.080000     -2.5823941E-35
   1.090000     -2.8583063E-35
   1.100000     -3.0949274E-35
   1.110000     -3.3172342E-35
   1.120000     -3.5153928E-35
   1.130000     -3.7090873E-35
   1.140000     -3.9225173E-35
   1.150000     -4.1957520E-35
   1.160000     -4.5414733E-35
   1.170000     -4.9086457E-35
   1.180000     -5.2959522E-35
   1.190000     -5.6853944E-35
   1.200000     -5.8837269E-35
   1.210000     -5.8365814E-35
   1.220000     -5.4653244E-35
   1.230000     -4.7201907E-35
   1.240000     -3.6927285E-35
   1.250000     -2.3334127E-35
   1.260000     -5.7956488E-36
   1.270000      1.5594246E-35
   1.280000      3.9695512E-35
   1.290000      6.5212782E-35
   1.300000      9.1710835E-35
   1.310000      1.1876593E-34
   1.320000      1.4635705E-34
   1.330000      1.7369161E-34
   1.340000      2.0080451E-34
   1.350000      2.2996428E-34
   1.360000      2.6276640E-34
   1.370000      2.9875334E-34
   1.380000      3.3398387E-34
   1.390000      3.6649193E-34
   1.400000      3.9660931E-34
   1.410000      4.2616436E-34
   1.420000      4.5565164E-34
   1.430000      4.8488499E-34
   1.440000      5.0897115E-34
   1.450000      5.2464251E-34
   1.460000      5.3401019E-34
   1.470000      5.3614899E-34
   1.480000      5.3131316E-34
   1.490000      5.1388650E-34
   1.500000      4.8329757E-34
   1.510000      4.3665414E-34
   1.520000      3.7067977E-34
   1.530000      2.8647270E-34
   1.540000      1.7867877E-34
   1.550000      4.8168797E-35
   1.560000     -1.0201757E-34
   1.570000     -2.6473947E-34
   1.580000     -4.3444494E-34
   1.590000     -6.1815763E-34
   1.600000     -8.1394884E-34
   1.610000     -1.0145776E-33
   1.620000     -1.2339702E-33
   1.630000     -1.4711161E-33
   1.640000     -1.7047912E-33
   1.650000     -1.9352092E-33
   1.660000     -2.1658616E-33
   1.670000     -2.3930124E-33
   1.680000     -2.6179609E-33
   1.690000     -2.8393203E-33
   1.700000     -3.0493837E-33
   1.710000     -3.2435507E-33
   1.720000     -3.4251775E-33
   1.730000     -3.5944703E-33
   1.740000     -3.7449972E-33
   1.750000     -3.8705800E-33
   1.760000     -3.9615578E-33
   1.770000     -4.0066431E-33
   1.780000     -4.0007241E-33
   1.790000     -3.9364944E-33
   1.800000     -3.8110820E-33
   1.810000     -3.6181602E-33
   1.820000     -3.3460568E-33
   1.830000     -2.9890823E-33
   1.840000     -2.5455907E-33
   1.850000     -2.0164399E-33
   1.860000     -1.4043515E-33
   1.870000     -7.0866959E-34
   1.880000      7.5664849E-35
   1.890000      9.3937271E-34
   1.900000      1.8802014E-33
   1.910000      2.9056257E-33
   1.920000      4.0140550E-33
   1.930000      5.2015441E-33
   1.940000      6.4643204E-33
   1.950000      7.7979342E-33
   1.960000      9.1962068E-33
   1.970000      1.0651600E-32
   1.980000      1.2155037E-32
   1.990000      1.3692674E-32
   2.000000      1.5251356E-32
   2.010000      1.6815257E-32
   2.020000      1.8363698E-32
   2.030000      1.9874615E-32
   2.040000      2.1326547E-32
   2.050000      2.2695321E-32
   2.060000      2.3954696E-32
   2.070000      2.5078467E-32
   2.080000      2.6040970E-32
   2.090000      2.6819500E-32
   2.100000      2.7386127E-32
   2.110000      2.7708988E-32
   2.120000      2.7761321E-32
   2.130000      2.7520095E-32
   2.140000      2.6959878E-32
   2.150000      2.6054879E-32
   2.160000      2.4779621E-32
   2.170000      2.3111126E-32
   2.180000      2.1027850E-32
   2.190000      1.8508929E-32
   2.200000      1.5535219E-32
   2.210000      1.2091103E-32
   2.220000      8.1644761E-33
   2.230000      3.7463123E-33
   2.240000     -1.1676520E-33
   2.250000     -6.5761121E-33
   2.260000     -1.2471976E-32
   2.270000     -1.8843117E-32
   2.280000     -2.5668030E-32
   2.290000     -3.2918426E-32
   2.300000     -4.0561229E-32
   2.310000     -4.8554946E-32
   2.320000     -5.6851397E-32
   2.330000     -6.5395255E-32
   2.340000     -7.4124288E-32
   2.350000     -8.2969589E-32
   2.360000     -9.1856226E-32
   2.370000     -1.0070199E-31
   2.380000     -1.0941851E-31
   2.390000     -1.1791193E-31
   2.400000     -1.2608240E-31
   2.410000     -1.3382437E-31
   2.420000     -1.4102682E-31
   2.430000     -1.4757396E-31
   2.440000     -1.5334550E-31
   2.450000     -1.5821754E-31
   2.460000     -1.6206038E-31
   2.470000     -1.6474959E-31
   2.480000     -1.6616041E-31
   2.490000     -1.6616169E-31
   2.500000     -1.6462810E-31
   2.510000     -1.6143900E-31
   2.520000     -1.5648002E-31
   2.530000     -1.4964275E-31
   2.540000     -1.4082787E-31
   2.550000     -1.2994767E-31
   2.560000     -1.1692561E-31
   2.570000     -1.0169862E-31
   2.580000     -8.4217887E-32
   2.590000     -6.4450145E-32
   2.600000     -4.2378772E-32
   2.610000     -1.8004929E-32
   2.620000      8.6512711E-33
   2.630000      3.7549504E-32
   2.640000      6.8628252E-32
   2.650000      1.0180337E-31
   2.660000      1.3696670E-31
   2.670000      1.7398501E-31
   2.680000      2.1269903E-31
   2.690000      2.5292235E-31
   2.700000      2.9444058E-31
   2.710000      3.3701122E-31
   2.720000      3.8036336E-31
   2.730000      4.2419815E-31
   2.740000      4.6818924E-31
   2.750000      5.1198403E-31
   2.760000      5.5520479E-31
   2.770000      5.9745051E-31
   2.780000      6.3829870E-31
   2.790000      6.7730748E-31
   2.800000      7.1401864E-31
   2.810000      7.4795906E-31
   2.820000      7.7864337E-31
   2.830000      8.0557766E-31
   2.840000      8.2826178E-31
   2.850000      8.4619221E-31
   2.860000      8.5886573E-31
   2.870000      8.6578300E-31
   2.880000      8.6645181E-31
   2.890000      8.6039209E-31
   2.900000      8.4713928E-31
   2.910000      8.2624971E-31
   2.920000      7.9730556E-31
   2.930000      7.5991967E-31
   2.940000      7.1374080E-31
   2.950000      6.5845876E-31
   2.960000      5.9381000E-31
   2.970000      5.1958219E-31
   2.980000      4.3561902E-31
   2.990000      3.4182518E-31
   3.000000      2.3817001E-31
   3.010000      1.2469142E-31
   3.020000      1.4997092E-33
   3.030000     -1.3121921E-31
   3.040000     -2.7320085E-31
   3.050000     -4.2409941E-31
   3.060000     -5.8348512E-31
   3.070000     -7.5084180E-31
   3.080000     -9.2556488E-31
   3.090000     -1.1069597E-30
   3.100000     -1.2942400E-30
   3.110000     -1.4865264E-30
   3.120000     -1.6828469E-30
   3.130000     -1.8821365E-30
   3.140000     -2.0832376E-30
   3.150000     -2.2849030E-30
   3.160000     -2.4857976E-30
   3.170000     -2.6845020E-30
   3.180000     -2.8795175E-30
   3.190000     -3.0692703E-30
   3.200000     -3.2521193E-30
   3.210000     -3.4263610E-30
   3.220000     -3.5902392E-30
   3.230000     -3.7419517E-30
   3.240000     -3.8796599E-30
   3.250000     -4.0014979E-30
   3.260000     -4.1055812E-30
   3.270000     -4.1900190E-30
   3.280000     -4.2529213E-30
   3.290000     -4.2924137E-30
   3.300000     -4.3066461E-30
   3.310000     -4.2938063E-30
   3.320000     -4.2521306E-30
   3.330000     -4.1799172E-30
   3.340000     -4.0755397E-30
   3.350000     -3.9374607E-30
   3.360000     -3.7642447E-30
   3.370000     -3.5545734E-30
   3.380000     -3.3072588E-30
   3.390000     -3.0212565E-30
   3.400000     -2.6956813E-30
   3.410000     -2.3298187E-30
   3.420000     -1.9231383E-30
   3.430000     -1.4753076E-30
   3.440000     -9.8620167E-31
   3.450000     -4.5591685E-31
   3.460000      1.1521938E-31
   3.470000      7.2663701E-31
   3.480000      1.3775144E-30
   3.490000      2.0667681E-30
   3.500000      2.7930432E-30
   3.510000      3.5547066E-30
   3.520000      4.3498369E-30
   3.530000      5.1762192E-30
   3.540000      6.0313378E-30
   3.550000      6.9123717E-30
   3.560000      7.8161896E-30
   3.570000      8.7393502E-30
   3.580000      9.6780996E-30
   3.590000      1.0628374E-29
   3.600000      1.1585801E-29
   3.610000      1.2545706E-29
   3.620000      1.3503118E-29
   3.630000      1.4452776E-29
   3.640000      1.5389148E-29
   3.650000      1.6306428E-29
   3.660000      1.7198560E-29
   3.670000      1.8059257E-29
   3.680000      1.8882002E-29
   3.690000      1.9660082E-29
   3.700000      2.0386594E-29
   3.710000      2.1054475E-29
   3.720000      2.1656516E-29
   3.730000      2.2185386E-29
   3.740000      2.2633658E-29
   3.750000      2.2993842E-29
   3.760000      2.3258395E-29
   3.770000      2.3419764E-29
   3.780000      2.3470410E-29
   3.790000      2.3402841E-29
   3.800000      2.3209647E-29
   3.810000      2.2883523E-29
   3.820000      2.2417327E-29
   3.830000      2.1804091E-29
   3.840000      2.1037076E-29
   3.850000      2.0109805E-29
   3.860000      1.9016098E-29
   3.870000      1.7750123E-29
   3.880000      1.6306431E-29
   3.890000      1.4680002E-29
   3.900000      1.2866285E-29
   3.910000      1.0861247E-29
   3.920000      8.6614163E-30
   3.930000      6.2639280E-30
   3.940000      3.6665689E-30
   3.950000      8.6782892E-31
   3.960000     -2.1330581E-30
   3.970000     -5.3360635E-30
   3.980000     -8.7403177E-30
   3.990000     -1.2344071E-29
   4.000000     -1.6144648E-29
   4.010000     -2.0138404E-29
   4.020000     -2.4320682E-29
   4.030000     -2.8685776E-29
   4.040000     -3.3226896E-29
   4.050000     -3.7936134E-29
   4.060000     -4.2804428E-29
   4.070000     -4.7821533E-29
   4.080000     -5.2976001E-29
   4.090000     -5.8255162E-29
   4.100000     -6.3645063E-29
   4.110000     -6.9130479E-29
   4.120000     -7.4694882E-29
   4.130000     -8.0320415E-29
   4.140000     -8.5987867E-29
   4.150000     -9.1676673E-29
   4.160000     -9.7364883E-29
   4.170000     -1.0302918E-28
   4.180000     -1.0864480E-28
   4.190000     -1.1418561E-28
   4.200000     -1.1962402E-28
   4.210000     -1.2493107E-28
   4.220000     -1.3007638E-28
   4.230000     -1.3502815E-28
   4.240000     -1.3975324E-28
   4.250000     -1.4421710E-28
   4.260000     -1.4838389E-28
   4.270000     -1.5221641E-28
   4.280000     -1.5567626E-28
   4.290000     -1.5872377E-28
   4.300000     -1.6131808E-28
   4.310000     -1.6341726E-28
   4.320000     -1.6497828E-28
   4.330000     -1.6595714E-28
   4.340000     -1.6630897E-28
   4.350000     -1.6598809E-28
   4.360000     -1.6494810E-28
   4.370000     -1.6314202E-28
   4.380000     -1.6052242E-28
   4.390000     -1.5704147E-28
   4.400000     -1.5265115E-28
   4.410000     -1.4730336E-28
   4.420000     -1.4095012E-28
   4.430000     -1.3354367E-28
   4.440000     -1.2503668E-28
   4.450000     -1.1538248E-28
   4.460000     -1.0453519E-28
   4.470000     -9.2449928E-29
   4.480000     -7.9083083E-29
   4.490000     -6.4392499E-29
   4.500000     -4.8337724E-29
   4.510000     -3.0880331E-29
   4.520000     -1.1984124E-29
   4.530000      8.3845217E-30
   4.540000      3.0256311E-29
   4.550000      5.3658737E-29
   4.560000      7.8615702E-29
   4.570000      1.0514713E-28
   4.580000      1.3326862E-28
   4.590000      1.6299097E-28
   4.600000      1.9431972E-28
   4.610000      2.2725477E-28
   4.620000      2.6178997E-28
   4.630000      2.9791255E-28
   4.640000      3.3560261E-28
   4.650000      3.7483267E-28
   4.660000      4.1556720E-28
   4.670000      4.5776196E-28
   4.680000      5.0136367E-28
   4.690000      5.4630929E-28
   4.700000      5.9252544E-28
   4.710000      6.3992812E-28
   4.720000      6.8842188E-28
   4.730000      7.3789935E-28
   4.740000      7.8824095E-28
   4.750000      8.3931391E-28
   4.760000      8.9097217E-28
   4.770000      9.4305577E-28
   4.780000      9.9539003E-28
   4.790000      1.0477859E-27
   4.800000      1.1000385E-27
   4.810000      1.1519275E-27
   4.820000      1.2032162E-27
   4.830000      1.2536515E-27
   4.840000      1.3029633E-27
   4.850000      1.3508644E-27
   4.860000      1.3970502E-27
   4.870000      1.4411988E-27
   4.880000      1.4829704E-27
   4.890000      1.5220078E-27
   4.900000      1.5579360E-27
   4.910000      1.5903623E-27
   4.920000      1.6188768E-27
   4.930000      1.6430522E-27
   4.940000      1.6624452E-27
   4.950000      1.6765958E-27
   4.960000      1.6850283E-27
   4.970000      1.6872525E-27
   4.980000      1.6827647E-27
   4.990000      1.6710478E-27
   5.000000      1.6515733E-27
   5.010000      1.6238028E-27
   5.020000      1.5871884E-27
   5.030000      1.5411758E-27
   5.040000      1.4852050E-27
   5.050000      1.4187128E-27
   5.060000      1.3411354E-27
   5.070000      1.2519095E-27
   5.080000      1.1504759E-27
   5.090000      1.0362817E-27
   5.100000      9.0878327E-28
   5.110000      7.6744967E-28
   5.120000      6.1176519E-28
   5.130000      4.4123325E-28
   5.140000      2.5538031E-28
   5.150000      5.3759054E-29
   5.160000     -1.6404731E-28
   5.170000     -3.9842050E-28
   5.180000     -6.4970327E-28
   5.190000     -9.1819490E-28
   5.200000     -1.2041467E-27
   5.210000     -1.5077571E-27
   5.220000     -1.8291662E-27
   5.230000     -2.1684506E-27
   5.240000     -2.5256191E-27
   5.250000     -2.9006067E-27
   5.260000     -3.2932689E-27
   5.270000     -3.7033772E-27
   5.280000     -4.1306121E-27
   5.290000     -4.5745566E-27
   5.300000     -5.0346933E-27
   5.310000     -5.5103960E-27
   5.320000     -6.0009265E-27
   5.330000     -6.5054277E-27
   5.340000     -7.0229166E-27
   5.350000     -7.5522824E-27
   5.360000     -8.0922769E-27
   5.370000     -8.6415128E-27
   5.380000     -9.1984556E-27
   5.390000     -9.7614242E-27
   5.400000     -1.0328582E-26
   5.410000     -1.0897935E-26
   5.420000     -1.1467327E-26
   5.430000     -1.2034437E-26
   5.440000     -1.2596780E-26
   5.450000     -1.3151700E-26
   5.460000     -1.3696371E-26
   5.470000     -1.4227795E-26
   5.480000     -1.4742801E-26
   5.490000     -1.5238046E-26
   5.500000     -1.5710017E-26
   5.510000     -1.6155030E-26
   5.520000     -1.6569241E-26
   5.530000     -1.6948638E-26
   5.540000     -1.7289053E-26
   5.550000     -1.7586164E-26
   5.560000     -1.7835507E-26
   5.570000     -1.8032474E-26
   5.580000     -1.8172334E-26
   5.590000     -1.8250228E-26
   5.600000     -1.8261192E-26
   5.610000     -1.8200163E-26
   5.620000     -1.8061995E-26
   5.630000     -1.7841476E-26
   5.640000     -1.7533341E-26
   5.650000     -1.7132289E-26
   5.660000     -1.6633001E-26
   5.670000     -1.6030167E-26
   5.680000     -1.5318505E-26
   5.690000     -1.4492783E-26
   5.700000     -1.3547848E-26
   5.710000     -1.2478645E-26
   5.720000     -1.1280247E-26
   5.730000     -9.9478896E-27
   5.740000     -8.4769953E-27
   5.750000     -6.8632108E-27
   5.760000     -5.1024417E-27
   5.770000     -3.1908821E-27
   5.780000     -1.1250494E-27
   5.790000      1.0981665E-27
   5.800000      3.4814781E-27
   5.810000      6.0271596E-27
   5.820000      8.7369997E-27
   5.830000      1.1612262E-26
   5.840000      1.4653654E-26
   5.850000      1.7861268E-26
   5.860000      2.1234544E-26
   5.870000      2.4772234E-26
   5.880000      2.8472354E-26
   5.890000      3.2332133E-26
   5.900000      3.6347990E-26
   5.910000      4.0515465E-26
   5.920000      4.4829190E-26
   5.930000      4.9282849E-26
   5.940000      5.3869117E-26
   5.950000      5.8579658E-26
   5.960000      6.3405040E-26
   5.970000      6.8334743E-26
   5.980000      7.3357094E-26
   5.990000      7.8459255E-26
   6.000000      8.3627169E-26
   6.010000      8.8845552E-26
   6.020000      9.4097849E-26
   6.030000      9.9366220E-26
   6.040000      1.0463155E-25
   6.050000      1.0987341E-25
   6.060000      1.1507007E-25
   6.070000      1.2019840E-25
   6.080000      1.2523405E-25
   6.090000      1.3015125E-25
   6.100000      1.3492300E-25
   6.110000      1.3952095E-25
   6.120000      1.4391552E-25
   6.130000      1.4807586E-25
   6.140000      1.5196994E-25
   6.150000      1.5556455E-25
   6.160000      1.5882545E-25
   6.170000      1.6171726E-25
   6.180000      1.6420369E-25
   6.190000      1.6624751E-25
   6.200000      1.6781069E-25
   6.210000      1.6885451E-25
   6.220000      1.6933958E-25
   6.230000      1.6922600E-25
   6.240000      1.6847345E-25
   6.250000      1.6704138E-25
   6.260000      1.6488907E-25
   6.270000      1.6197584E-25
   6.280000      1.5826114E-25
   6.290000      1.5370483E-25
   6.300000      1.4826722E-25
   6.310000      1.4190935E-25
   6.320000      1.3459317E-25
   6.330000      1.2628169E-25
   6.340000      1.1693922E-25
   6.350000      1.0653161E-25
   6.360000      9.5026419E-26
   6.370000      8.2393249E-26
   6.380000      6.8603862E-26
   6.390000      5.3632521E-26
   6.400000      3.7456216E-26
   6.410000      2.0054906E-26
   6.420000      1.4118033E-27
   6.430000     -1.8486328E-26
   6.440000     -3.9648978E-26
   6.450000     -6.2081529E-26
   6.460000     -8.5785030E-26
   6.470000     -1.1075589E-25
   6.480000     -1.3698560E-25
   6.490000     -1.6446053E-25
   6.500000     -1.9316162E-25
   6.510000     -2.2306415E-25
   6.520000     -2.5413736E-25
   6.530000     -2.8634426E-25
   6.540000     -3.1964136E-25
   6.550000     -3.5397850E-25
   6.560000     -3.8929852E-25
   6.570000     -4.2553716E-25
   6.580000     -4.6262274E-25
   6.590000     -5.0047594E-25
   6.600000     -5.3900987E-25
   6.610000     -5.7812973E-25
   6.620000     -6.1773262E-25
   6.630000     -6.5770765E-25
   6.640000     -6.9793561E-25
   6.650000     -7.3828910E-25
   6.660000     -7.7863239E-25
   6.670000     -8.1882140E-25
   6.680000     -8.5870369E-25
   6.690000     -8.9811863E-25
   6.700000     -9.3689736E-25
   6.710000     -9.7486316E-25
   6.720000     -1.0118313E-24
   6.730000     -1.0476091E-24
   6.740000     -1.0819968E-24
   6.750000     -1.1147872E-24
   6.760000     -1.1457662E-24
   6.770000     -1.1747134E-24
   6.780000     -1.2014018E-24
   6.790000     -1.2255993E-24
   6.800000     -1.2470684E-24
   6.810000     -1.2655665E-24
   6.820000     -1.2808475E-24
   6.830000     -1.2926617E-24
   6.840000     -1.3007564E-24
   6.850000     -1.3048771E-24
   6.860000     -1.3047680E-24
   6.870000     -1.3001727E-24
   6.880000     -1.2908357E-24
   6.890000     -1.2765024E-24
   6.900000     -1.2569208E-24
   6.910000     -1.2318420E-24
   6.920000     -1.2010219E-24
   6.930000     -1.1642210E-24
   6.940000     -1.1212071E-24
   6.950000     -1.0717555E-24
   6.960000     -1.0156505E-24
   6.970000     -9.5268661E-25
   6.980000     -8.8267007E-25
   6.990000     -8.0541988E-25
   7.000000     -7.2076929E-25
   7.010000     -6.2856708E-25
   7.020000     -5.2867890E-25
   7.030000     -4.2098884E-25
   7.040000     -3.0540102E-25
   7.050000     -1.8184059E-25
   7.060000     -5.0255395E-26