  -2.600000      0.0000000E+00
  -2.590000      0.0000000E+00
  -2.580000      0.0000000E+00
  -2.570000      0.0000000E+00
  -2.560000      0.0000000E+00
  -2.550000      0.0000000E+00
  -2.540000      0.0000000E+00
  -2.530000      0.0000000E+00
  -2.520000      0.0000000E+00
  -2.510000      0.0000000E+00
  -2.500000      0.0000000E+00
  -2.490000      0.0000000E+00
  -2.480000      0.0000000E+00
  -2.470000      0.0000000E+00
  -2.460000      0.0000000E+00
  -2.450000      0.0000000E+00
  -2.440000      0.0000000E+00
  -2.430000      0.0000000E+00
  -2.420000      0.0000000E+00
  -2.410000      0.0000000E+00
  -2.400000      0.0000000E+00
  -2.390000      0.0000000E+00
  -2.380000      0.0000000E+00
  -2.370000      0.0000000E+00
  -2.360000      0.0000000E+00
  -2.350000      0.0000000E+00
  -2.340000      0.0000000E+00
  -2.330000      0.0000000E+00
  -2.320000      0.0000000E+00
  -2.310000      0.0000000E+00
  -2.300000      0.0000000E+00
  -2.290000      0.0000000E+00
  -2.280000      0.0000000E+00
  -2.270000      0.0000000E+00
  -2.260000      0.0000000E+00
  -2.250000      0.0000000E+00
  -2.240000      0.0000000E+00
  -2.230000      0.0000000E+00
  -2.220000      0.0000000E+00
  -2.210000      0.0000000E+00
  -2.200000      0.0000000E+00
  -2.190000      0.0000000E+00
  -2.180000      0.0000000E+00
  -2.170000      0.0000000E+00
  -2.160000      0.0000000E+00
  -2.150000      0.0000000E+00
  -2.140000      0.0000000E+00
  -2.130000      0.0000000E+00
  -2.120000      0.0000000E+00
  -2.110000      0.0000000E+00
  -2.100000      0.0000000E+00
  -2.090000      0.0000000E+00
  -2.080000      0.0000000E+00
  -2.070000      0.0000000E+00
  -2.060000      0.0000000E+00
  -2.050000      0.0000000E+00
  -2.040000      0.0000000E+00
  -2.030000      0.0000000E+00
  -2.020000      0.0000000E+00
  -2.010000      0.0000000E+00
  -2.000000      0.0000000E+00
  -1.990000      0.0000000E+00
  -1.980000      0.0000000E+00
  -1.970000      0.0000000E+00
  -1.960000      0.0000000E+00
  -1.950000      0.0000000E+00
  -1.940000      0.0000000E+00
  -1.930000      0.0000000E+00
  -1.920000      0.0000000E+00
  -1.910000      0.0000000E+00
  -1.900000      0.0000000E+00
  -1.890000      0.0000000E+00
  -1.880000      0.0000000E+00
  -1.870000      0.0000000E+00
  -1.860000      0.0000000E+00
  -1.850000      0.0000000E+00
  -1.840000      0.0000000E+00
  -1.830000      0.0000000E+00
  -1.820000      0.0000000E+00
  -1.810000      0.0000000E+00
  -1.800000      0.0000000E+00
  -1.790000      0.0000000E+00
  -1.780000      0.0000000E+00
  -1.770000      0.0000000E+00
  -1.760000      0.0000000E+00
  -1.750000      0.0000000E+00
  -1.740000      0.0000000E+00
  -1.730000      0.0000000E+00
  -1.720000      0.0000000E+00
  -1.710000      0.0000000E+00
  -1.700000      0.0000000E+00
  -1.690000      0.0000000E+00
  -1.680000      0.0000000E+00
  -1.670000      0.0000000E+00
  -1.660000      0.0000000E+00
  -1.650000      0.0000000E+00
  -1.640000      0.0000000E+00
  -1.630000      0.0000000E+00
  -1.620000      0.0000000E+00
  -1.610000      0.0000000E+00
  -1.600000      0.0000000E+00
  -1.590000      0.0000000E+00
  -1.580000      0.0000000E+00
  -1.570000      0.0000000E+00
  -1.560000      0.0000000E+00
  -1.550000      0.0000000E+00
  -1.540000      0.0000000E+00
  -1.530000      0.0000000E+00
  -1.520000      0.0000000E+00
  -1.510000      0.0000000E+00
  -1.500000      0.0000000E+00
  -1.490000      0.0000000E+00
  -1.480000      0.0000000E+00
  -1.470000      0.0000000E+00
  -1.460000      0.0000000E+00
  -1.450000      0.0000000E+00
  -1.440000      0.0000000E+00
  -1.430000      0.0000000E+00
  -1.420000      0.0000000E+00
  -1.410000      0.0000000E+00
  -1.400000      0.0000000E+00
  -1.390000      0.0000000E+00
  -1.380000      0.0000000E+00
  -1.370000      0.0000000E+00
  -1.360000      0.0000000E+00
  -1.350000      0.0000000E+00
  -1.340000      0.0000000E+00
  -1.330000      0.0000000E+00
  -1.320000      0.0000000E+00
  -1.310000      0.0000000E+00
  -1.300000      0.0000000E+00
  -1.290000      0.0000000E+00
  -1.280000      0.0000000E+00
  -1.270000      0.0000000E+00
  -1.260000      0.0000000E+00
  -1.250000      0.0000000E+00
  -1.240000      0.0000000E+00
  -1.230000      0.0000000E+00
  -1.220000      0.0000000E+00
  -1.210000      0.0000000E+00
  -1.200000      0.0000000E+00
  -1.190000      0.0000000E+00
  -1.180000      0.0000000E+00
  -1.170000      0.0000000E+00
  -1.160000      0.0000000E+00
  -1.150000      0.0000000E+00
  -1.140000      0.0000000E+00
  -1.130000      0.0000000E+00
  -1.120000      0.0000000E+00
  -1.110000      0.0000000E+00
  -1.100000      0.0000000E+00
  -1.090000      0.0000000E+00
  -1.080000      0.0000000E+00
  -1.070000      0.0000000E+00
  -1.060000      0.0000000E+00
  -1.050000      0.0000000E+00
  -1.040000      0.0000000E+00
  -1.030000      0.0000000E+00
  -1.020000      0.0000000E+00
  -1.010000      0.0000000E+00
  -1.000000      0.0000000E+00
 -0.9900000      0.0000000E+00
 -0.9800000      0.0000000E+00
 -0.9700000      0.0000000E+00
 -0.9600000      0.0000000E+00
 -0.9500000      0.0000000E+00
 -0.9400000      0.0000000E+00
 -0.9300000      0.0000000E+00
 -0.9200000      0.0000000E+00
 -0.9100000      0.0000000E+00
 -0.9000000      0.0000000E+00
 -0.8900000      0.0000000E+00
 -0.8800000      0.0000000E+00
 -0.8700000      0.0000000E+00
 -0.8600000      0.0000000E+00
 -0.8500000      0.0000000E+00
 -0.8400000      0.0000000E+00
 -0.8300000      0.0000000E+00
 -0.8200000      0.0000000E+00
 -0.8100000      0.0000000E+00
 -0.8000000      0.0000000E+00
 -0.7900000      0.0000000E+00
 -0.7800000      0.0000000E+00
 -0.7700000      0.0000000E+00
 -0.7600000      0.0000000E+00
 -0.7500000      0.0000000E+00
 -0.7400000      0.0000000E+00
 -0.7300000      0.0000000E+00
 -0.7200000      0.0000000E+00
 -0.7100000      0.0000000E+00
 -0.7000000      0.0000000E+00
 -0.6900000      0.0000000E+00
 -0.6800000      0.0000000E+00
 -0.6700000      0.0000000E+00
 -0.6600000      0.0000000E+00
 -0.6500000      0.0000000E+00
 -0.6400000      0.0000000E+00
 -0.6300000      0.0000000E+00
 -0.6200000      0.0000000E+00
 -0.6100000      0.0000000E+00
 -0.6000000      0.0000000E+00
 -0.5900000      0.0000000E+00
 -0.5800000      0.0000000E+00
 -0.5700000      0.0000000E+00
 -0.5600000      0.0000000E+00
 -0.5500000      0.0000000E+00
 -0.5400000      0.0000000E+00
 -0.5300000      0.0000000E+00
 -0.5200000      0.0000000E+00
 -0.5100000      0.0000000E+00
 -0.5000000      0.0000000E+00
 -0.4900000      0.0000000E+00
 -0.4800000      0.0000000E+00
 -0.4700000      0.0000000E+00
 -0.4600000      0.0000000E+00
 -0.4500000      0.0000000E+00
 -0.4400000      0.0000000E+00
 -0.4300000      0.0000000E+00
 -0.4200000      0.0000000E+00
 -0.4100000      0.0000000E+00
 -0.4000000      0.0000000E+00
 -0.3900000      0.0000000E+00
 -0.3800000      0.0000000E+00
 -0.3700000      0.0000000E+00
 -0.3600000      0.0000000E+00
 -0.3500000      0.0000000E+00
 -0.3400000      0.0000000E+00
 -0.3300000      0.0000000E+00
 -0.3200000      0.0000000E+00
 -0.3100000      0.0000000E+00
 -0.3000000      0.0000000E+00
 -0.2900000      0.0000000E+00
 -0.2800000      0.0000000E+00
 -0.2700000      0.0000000E+00
 -0.2600000      0.0000000E+00
 -0.2500000      0.0000000E+00
 -0.2400000      0.0000000E+00
 -0.2300000      0.0000000E+00
 -0.2200000      0.0000000E+00
 -0.2100000      0.0000000E+00
 -0.2000000      0.0000000E+00
 -0.1900000      0.0000000E+00
 -0.1800000      0.0000000E+00
 -0.1700000      0.0000000E+00
 -0.1600000      0.0000000E+00
 -0.1500000      0.0000000E+00
 -0.1400000      0.0000000E+00
 -0.1300000      0.0000000E+00
 -0.1200000      0.0000000E+00
 -0.1100000      0.0000000E+00
 -0.1000000      0.0000000E+00
 -9.0000004E-02  0.0000000E+00
 -7.9999998E-02  0.0000000E+00
 -7.0000000E-02  0.0000000E+00
 -5.9999999E-02  0.0000000E+00
 -5.0000001E-02  0.0000000E+00
 -3.9999999E-02  0.0000000E+00
 -2.9999999E-02  0.0000000E+00
 -2.0000000E-02  0.0000000E+00
 -9.9999998E-03  0.0000000E+00
 -3.4694470E-17  0.0000000E+00
  9.9999998E-03  0.0000000E+00
  2.0000000E-02  0.0000000E+00
  2.9999999E-02  0.0000000E+00
  3.9999999E-02  0.0000000E+00
  5.0000001E-02  0.0000000E+00
  5.9999999E-02  0.0000000E+00
  7.0000000E-02  0.0000000E+00
  7.9999998E-02  0.0000000E+00
  9.0000004E-02  0.0000000E+00
  0.1000000      0.0000000E+00
  0.1100000      0.0000000E+00
  0.1200000      0.0000000E+00
  0.1300000      0.0000000E+00
  0.1400000      0.0000000E+00
  0.1500000      0.0000000E+00
  0.1600000      0.0000000E+00
  0.1700000      0.0000000E+00
  0.1800000      0.0000000E+00
  0.1900000      0.0000000E+00
  0.2000000      0.0000000E+00
  0.2100000      0.0000000E+00
  0.2200000      0.0000000E+00
  0.2300000      0.0000000E+00
  0.2400000      0.0000000E+00
  0.2500000      0.0000000E+00
  0.2600000      0.0000000E+00
  0.2700000      0.0000000E+00
  0.2800000      0.0000000E+00
  0.2900000      0.0000000E+00
  0.3000000      0.0000000E+00
  0.3100000      0.0000000E+00
  0.3200000      0.0000000E+00
  0.3300000      0.0000000E+00
  0.3400000      0.0000000E+00
  0.3500000      0.0000000E+00
  0.3600000      0.0000000E+00
  0.3700000      0.0000000E+00
  0.3800000      1.1991537E-38
  0.3900000      2.1951219E-38
  0.4000000      3.2589841E-38
  0.4100000      4.3982101E-38
  0.4200000      5.5835186E-38
  0.4300000      6.4480609E-38
  0.4400000      6.9315257E-38
  0.4500000      7.2021080E-38
  0.4600000      7.2762288E-38
  0.4700000      7.8386411E-38
  0.4800000      8.8723364E-38
  0.4900000      9.7820834E-38
  0.5000000      1.0060320E-37
  0.5100000      9.3145178E-38
  0.5200000      8.7550527E-38
  0.5300000      7.3302859E-38
  0.5400000      4.9797198E-38
  0.5500000      3.2383680E-38
  0.5600000      1.4917137E-38
  0.5700000      0.0000000E+00
  0.5800000      1.6590953E-38
  0.5900000      7.5146194E-38
  0.6000000      2.0124254E-37
  0.6100000      3.9923397E-37
  0.6200000      5.6930820E-37
  0.6300000      7.0971911E-37
  0.6400000      8.8826924E-37
  0.6500000      1.0428296E-36
  0.6600000      1.0089185E-36
  0.6700000      7.4155876E-37
  0.6800000      2.9538630E-37
  0.6900000     -1.9551600E-37
  0.7000000     -6.6928548E-37
  0.7100000     -1.1691221E-36
  0.7200000     -1.6818638E-36
  0.7300000     -2.1653189E-36
  0.7400000     -2.5943590E-36
  0.7500000     -2.9789076E-36
  0.7600000     -3.2472210E-36
  0.7700000     -3.3333548E-36
  0.7800000     -3.3627630E-36
  0.7900000     -3.4392479E-36
  0.8000000     -3.5367905E-36
  0.8100000     -3.6338739E-36
  0.8200000     -3.6733122E-36
  0.8300000     -4.2254297E-36
  0.8400000     -5.4406365E-36
  0.8500000     -6.8345555E-36
  0.8600000     -8.2783989E-36
  0.8700000     -9.8213651E-36
  0.8800000     -1.1337987E-35
  0.8900000     -1.2246856E-35
  0.9000000     -1.2784714E-35
  0.9100000     -1.3438661E-35
  0.9200000     -1.4137684E-35
  0.9300000     -1.4735690E-35
  0.9400000     -1.4328721E-35
  0.9500000     -1.2881046E-35
  0.9600000     -1.1981676E-35
  0.9700000     -1.1147102E-35
  0.9800000     -9.5942437E-36
  0.9900000     -7.9229417E-36
   1.000000     -6.1160482E-36
   1.010000     -3.9202970E-36
   1.020000     -1.3390483E-36
   1.030000      1.7880127E-36
   1.040000      6.1965606E-36
   1.050000      1.1014023E-35
   1.060000      1.5669231E-35
   1.070000      2.0805637E-35
   1.080000      2.6988076E-35
   1.090000      3.4256738E-35
   1.100000      4.1683845E-35
   1.110000      4.8834093E-35
   1.120000      5.6386300E-35
   1.130000      6.4466280E-35
   1.140000      7.3360180E-35
   1.150000      8.2847746E-35
   1.160000      9.1358210E-35
   1.170000      9.8593900E-35
   1.180000      1.0486603E-34
   1.190000      1.1088874E-34
   1.200000      1.1660341E-34
   1.210000      1.2326724E-34
   1.220000      1.3080180E-34
   1.230000      1.3728192E-34
   1.240000      1.4238063E-34
   1.250000      1.4541983E-34
   1.260000      1.4601592E-34
   1.270000      1.4509881E-34
   1.280000      1.4292784E-34
   1.290000      1.3840485E-34
   1.300000      1.3089429E-34
   1.310000      1.2051658E-34
   1.320000      1.0789941E-34
   1.330000      9.3535475E-35
   1.340000      7.7798102E-35
   1.350000      6.0893265E-35
   1.360000      4.2722530E-35
   1.370000      2.3753362E-35
   1.380000      1.8013961E-36
   1.390000     -2.3648234E-35
   1.400000     -5.1475632E-35
   1.410000     -8.2888670E-35
   1.420000     -1.1953700E-34
   1.430000     -1.6171481E-34
   1.440000     -2.0681772E-34
   1.450000     -2.5366973E-34
   1.460000     -3.0186155E-34
   1.470000     -3.4802026E-34
   1.480000     -3.9080058E-34
   1.490000     -4.3578101E-34
   1.500000     -4.8316895E-34
   1.510000     -5.3099412E-34
   1.520000     -5.7869780E-34
   1.530000     -6.2220307E-34
   1.540000     -6.5458014E-34
   1.550000     -6.7438543E-34
   1.560000     -6.8587813E-34
   1.570000     -6.8259648E-34
   1.580000     -6.6756894E-34
   1.590000     -6.4952078E-34
   1.600000     -6.3147203E-34
   1.610000     -6.1641330E-34
   1.620000     -5.9835679E-34
   1.630000     -5.7035890E-34
   1.640000     -5.2792953E-34
   1.650000     -4.6722741E-34
   1.660000     -3.8671817E-34
   1.670000     -2.8863793E-34
   1.680000     -1.7578705E-34
   1.690000     -5.5399074E-35
   1.700000      7.0887728E-35
   1.710000      2.0881016E-34
   1.720000      3.6136104E-34
   1.730000      5.2957820E-34
   1.740000      7.1684488E-34
   1.750000      9.2216237E-34
   1.760000      1.1384743E-33
   1.770000      1.3612507E-33
   1.780000      1.5900260E-33
   1.790000      1.8369511E-33
   1.800000      2.1046086E-33
   1.810000      2.3819988E-33
   1.820000      2.6639255E-33
   1.830000      2.9440026E-33
   1.840000      3.2131433E-33
   1.850000      3.4659495E-33
   1.860000      3.6951283E-33
   1.870000      3.8922583E-33
   1.880000      4.0560940E-33
   1.890000      4.1884877E-33
   1.900000      4.2876491E-33
   1.910000      4.3488156E-33
   1.920000      4.3703069E-33
   1.930000      4.3541314E-33
   1.940000      4.2948960E-33
   1.950000      4.1862487E-33
   1.960000      4.0250455E-33
   1.970000      3.8041436E-33
   1.980000      3.5130674E-33
   1.990000      3.1428351E-33
   2.000000      2.6843431E-33
   2.010000      2.1254940E-33
   2.020000      1.4549670E-33
   2.030000      6.5737625E-34
   2.040000     -2.5716368E-34
   2.050000     -1.2946687E-33
   2.060000     -2.4716600E-33
   2.070000     -3.7807024E-33
   2.080000     -5.2186626E-33
   2.090000     -6.7799164E-33
   2.100000     -8.4604112E-33
   2.110000     -1.0251665E-32
   2.120000     -1.2145699E-32
   2.130000     -1.4134198E-32
   2.140000     -1.6208690E-32
   2.150000     -1.8361884E-32
   2.160000     -2.0583413E-32
   2.170000     -2.2862644E-32
   2.180000     -2.5188387E-32
   2.190000     -2.7546235E-32
   2.200000     -2.9918861E-32
   2.210000     -3.2285079E-32
   2.220000     -3.4619916E-32
   2.230000     -3.6894900E-32
   2.240000     -3.9078043E-32
   2.250000     -4.1134947E-32
   2.260000     -4.3028521E-32
   2.270000     -4.4719720E-32
   2.280000     -4.6169515E-32
   2.290000     -4.7338298E-32
   2.300000     -4.8187293E-32
   2.310000     -4.8678638E-32
   2.320000     -4.8774464E-32
   2.330000     -4.8438217E-32
   2.340000     -4.7632959E-32
   2.350000     -4.6321695E-32
   2.360000     -4.4467400E-32
   2.370000     -4.2030952E-32
   2.380000     -3.8971061E-32
   2.390000     -3.5246061E-32
   2.400000     -3.0813574E-32
   2.410000     -2.5632748E-32
   2.420000     -1.9659908E-32
   2.430000     -1.2853514E-32
   2.440000     -5.1806523E-33
   2.450000      3.3880230E-33
   2.460000      1.2874188E-32
   2.470000      2.3288368E-32
   2.480000      3.4633622E-32
   2.490000      4.6901240E-32
   2.500000      6.0066986E-32
   2.510000      7.4095059E-32
   2.520000      8.8936592E-32
   2.530000      1.0452972E-31
   2.540000      1.2079977E-31
   2.550000      1.3765959E-31
   2.560000      1.5500974E-31
   2.570000      1.7273861E-31
   2.580000      1.9072255E-31
   2.590000      2.0882561E-31
   2.600000      2.2689928E-31
   2.610000      2.4478245E-31
   2.620000      2.6230113E-31
   2.630000      2.7926819E-31
   2.640000      2.9548373E-31
   2.650000      3.1073535E-31
   2.660000      3.2479868E-31
   2.670000      3.3743880E-31
   2.680000      3.4841124E-31
   2.690000      3.5746313E-31
   2.700000      3.6433521E-31
   2.710000      3.6876295E-31
   2.720000      3.7047900E-31
   2.730000      3.6921424E-31
   2.740000      3.6469842E-31
   2.750000      3.5666248E-31
   2.760000      3.4483924E-31
   2.770000      3.2896506E-31
   2.780000      3.0878130E-31
   2.790000      2.8403606E-31
   2.800000      2.5448663E-31
   2.810000      2.1990236E-31
   2.820000      1.8006856E-31
   2.830000      1.3479068E-31
   2.840000      8.3899616E-32
   2.850000      2.7257539E-32
   2.860000     -3.5235987E-32
   2.870000     -1.0363729E-31
   2.880000     -1.7795191E-31
   2.890000     -2.5812789E-31
   2.900000     -3.4404980E-31
   2.910000     -4.3553298E-31
   2.920000     -5.3231871E-31
   2.930000     -6.3407040E-31
   2.940000     -7.4037012E-31
   2.950000     -8.5071702E-31
   2.960000     -9.6452612E-31
   2.970000     -1.0811276E-30
   2.980000     -1.1997677E-30
   2.990000     -1.3196089E-30
   3.000000     -1.4397322E-30
   3.010000     -1.5591378E-30
   3.020000     -1.6767479E-30
   3.030000     -1.7914090E-30
   3.040000     -1.9018929E-30
   3.050000     -2.0069008E-30
   3.060000     -2.1050649E-30
   3.070000     -2.1949523E-30
   3.080000     -2.2750664E-30
   3.090000     -2.3438530E-30
   3.100000     -2.3997036E-30
   3.110000     -2.4409586E-30
   3.120000     -2.4659152E-30
   3.130000     -2.4728312E-30
   3.140000     -2.4599324E-30
   3.150000     -2.4254204E-30
   3.160000     -2.3674814E-30
   3.170000     -2.2842957E-30
   3.180000     -2.1740492E-30
   3.190000     -2.0349475E-30
   3.200000     -1.8652308E-30
   3.210000     -1.6631900E-30
   3.220000     -1.4271885E-30
   3.230000     -1.1556818E-30
   3.240000     -8.4724282E-31
   3.250000     -5.0058944E-31
   3.260000     -1.1461233E-31
   3.270000      3.1159560E-31
   3.280000      7.7870703E-31
   3.290000      1.2871280E-30
   3.300000      1.8369668E-30
   3.310000      2.4280024E-30
   3.320000      3.0596555E-30
   3.330000      3.7309585E-30
   3.340000      4.4405317E-30
   3.350000      5.1865613E-30
   3.360000      5.9667781E-30
   3.370000      6.7784436E-30
   3.380000      7.6183386E-30
   3.390000      8.4827509E-30
   3.400000      9.3674705E-30
   3.410000      1.0267790E-29
   3.420000      1.1178501E-29
   3.430000      1.2093894E-29
   3.440000      1.3007756E-29
   3.450000      1.3913389E-29
   3.460000      1.4803594E-29
   3.470000      1.5670692E-29
   3.480000      1.6506517E-29
   3.490000      1.7302428E-29
   3.500000      1.8049317E-29
   3.510000      1.8737613E-29
   3.520000      1.9357293E-29
   3.530000      1.9897894E-29
   3.540000      2.0348535E-29
   3.550000      2.0697933E-29
   3.560000      2.0934437E-29
   3.570000      2.1046055E-29
   3.580000      2.1020501E-29
   3.590000      2.0845241E-29
   3.600000      2.0507561E-29
   3.610000      1.9994633E-29
   3.620000      1.9293604E-29
   3.630000      1.8391673E-29
   3.640000      1.7276204E-29
   3.650000      1.5934849E-29
   3.660000      1.4355664E-29
   3.670000      1.2527236E-29
   3.680000      1.0438831E-29
   3.690000      8.0805408E-30
   3.700000      5.4434360E-30
   3.710000      2.5197139E-30
   3.720000     -6.9714413E-31
   3.730000     -4.2122243E-30
   3.740000     -8.0290244E-30
   3.750000     -1.2149318E-29
   3.760000     -1.6573017E-29
   3.770000     -2.1298030E-29
   3.780000     -2.6320159E-29
   3.790000     -3.1632981E-29
   3.800000     -3.7227732E-29
   3.810000     -4.3093227E-29
   3.820000     -4.9215764E-29
   3.830000     -5.5579016E-29
   3.840000     -6.2163975E-29
   3.850000     -6.8948840E-29
   3.860000     -7.5908952E-29
   3.870000     -8.3016711E-29
   3.880000     -9.0241500E-29
   3.890000     -9.7549585E-29
   3.900000     -1.0490404E-28
   3.910000     -1.1226468E-28
   3.920000     -1.1958798E-28
   3.930000     -1.2682700E-28
   3.940000     -1.3393134E-28
   3.950000     -1.4084707E-28
   3.960000     -1.4751680E-28
   3.970000     -1.5387954E-28
   3.980000     -1.5987087E-28
   3.990000     -1.6542290E-28
   4.000000     -1.7046443E-28
   4.010000     -1.7492112E-28
   4.020000     -1.7871560E-28
   4.030000     -1.8176779E-28
   4.040000     -1.8399511E-28
   4.050000     -1.8531287E-28
   4.060000     -1.8563465E-28
   4.070000     -1.8487270E-28
   4.080000     -1.8293843E-28
   4.090000     -1.7974293E-28
   4.100000     -1.7519750E-28
   4.110000     -1.6921429E-28
   4.120000     -1.6170674E-28
   4.130000     -1.5259033E-28
   4.140000     -1.4178324E-28
   4.150000     -1.2920688E-28
   4.160000     -1.1478656E-28
   4.170000     -9.8452227E-29
   4.180000     -8.0138998E-29
   4.190000     -5.9787895E-29
   4.200000     -3.7346463E-29
   4.210000     -1.2769411E-29
   4.220000      1.3980672E-29
   4.230000      4.2932581E-29
   4.240000      7.4105914E-29
   4.250000      1.0751022E-28
   4.260000      1.4314432E-28
   4.270000      1.8099553E-28
   4.280000      2.2103876E-28
   4.290000      2.6323582E-28
   4.300000      3.0753432E-28
   4.310000      3.5386702E-28
   4.320000      4.0215069E-28
   4.330000      4.5228524E-28
   4.340000      5.0415290E-28
   4.350000      5.5761710E-28
   4.360000      6.1252141E-28
   4.370000      6.6868914E-28
   4.380000      7.2592219E-28
   4.390000      7.8400024E-28
   4.400000      8.4268054E-28
   4.410000      9.0169700E-28
   4.420000      9.6075978E-28
   4.430000      1.0195551E-27
   4.440000      1.0777451E-27
   4.450000      1.1349683E-27
   4.460000      1.1908391E-27
   4.470000      1.2449485E-27
   4.480000      1.2968645E-27
   4.490000      1.3461332E-27
   4.500000      1.3922789E-27
   4.510000      1.4348057E-27
   4.520000      1.4731982E-27
   4.530000      1.5069231E-27
   4.540000      1.5354300E-27
   4.550000      1.5581535E-27
   4.560000      1.5745140E-27
   4.570000      1.5839195E-27
   4.580000      1.5857673E-27
   4.590000      1.5794469E-27
   4.600000      1.5643402E-27
   4.610000      1.5398248E-27
   4.620000      1.5052757E-27
   4.630000      1.4600682E-27
   4.640000      1.4035798E-27
   4.650000      1.3351933E-27
   4.660000      1.2543002E-27
   4.670000      1.1603039E-27
   4.680000      1.0526230E-27
   4.690000      9.3069563E-28
   4.700000      7.9398316E-28
   4.710000      6.4197504E-28
   4.720000      4.7419380E-28
   4.730000      2.9019924E-28
   4.740000      8.9594628E-29
   4.750000     -1.2796744E-28
   4.760000     -3.6278032E-28
   4.770000     -6.1507664E-28
   4.780000     -8.8502230E-28
   4.790000     -1.1727102E-27
   4.800000     -1.4781541E-27
   4.810000     -1.8012820E-27
   4.820000     -2.1419317E-27
   4.830000     -2.4998420E-27
   4.840000     -2.8746486E-27
   4.850000     -3.2658784E-27
   4.860000     -3.6729437E-27
   4.870000     -4.0951357E-27
   4.880000     -4.5316203E-27
   4.890000     -4.9814344E-27
   4.900000     -5.4434796E-27
   4.910000     -5.9165176E-27
   4.920000     -6.3991661E-27
   4.930000     -6.8898950E-27
   4.940000     -7.3870229E-27
   4.950000     -7.8887154E-27
   4.960000     -8.3929777E-27
   4.970000     -8.8976546E-27
   4.980000     -9.4004240E-27
   4.990000     -9.8987961E-27
   5.000000     -1.0390112E-26
   5.010000     -1.0871539E-26
   5.020000     -1.1340072E-26
   5.030000     -1.1792528E-26
   5.040000     -1.2225552E-26
   5.050000     -1.2635613E-26
   5.060000     -1.3019004E-26
   5.070000     -1.3371850E-26
   5.080000     -1.3690105E-26
   5.090000     -1.3969565E-26
   5.100000     -1.4205866E-26
   5.110000     -1.4394494E-26
   5.120000     -1.4530801E-26
   5.130000     -1.4610001E-26
   5.140000     -1.4627196E-26
   5.150000     -1.4577384E-26
   5.160000     -1.4455471E-26
   5.170000     -1.4256294E-26
   5.180000     -1.3974635E-26
   5.190000     -1.3605242E-26
   5.200000     -1.3142849E-26
   5.210000     -1.2582204E-26
   5.220000     -1.1918084E-26
   5.230000     -1.1145323E-26
   5.240000     -1.0258843E-26
   5.250000     -9.2536766E-27
   5.260000     -8.1250008E-27
   5.270000     -6.8681605E-27
   5.280000     -5.4786995E-27
   5.290000     -3.9524023E-27
   5.300000     -2.2853220E-27
   5.310000     -4.7381180E-28
   5.320000      1.4854322E-27
   5.330000      3.5953326E-27
   5.340000      5.8583989E-27
   5.350000      8.2766762E-27
   5.360000      1.0851712E-26
   5.370000      1.3584508E-26
   5.380000      1.6475466E-26
   5.390000      1.9524355E-26
   5.400000      2.2730252E-26
   5.410000      2.6091485E-26
   5.420000      2.9605598E-26
   5.430000      3.3269281E-26
   5.440000      3.7078324E-26
   5.450000      4.1027583E-26
   5.460000      4.5110888E-26
   5.470000      4.9321017E-26
   5.480000      5.3649641E-26
   5.490000      5.8087267E-26
   5.500000      6.2623199E-26
   5.510000      6.7245449E-26
   5.520000      7.1940787E-26
   5.530000      7.6694586E-26
   5.540000      8.1490860E-26
   5.550000      8.6312199E-26
   5.560000      9.1139769E-26
   5.570000      9.5953238E-26
   5.580000      1.0073081E-25
   5.590000      1.0544912E-25
   5.600000      1.1008332E-25
   5.610000      1.1460698E-25
   5.620000      1.1899215E-25
   5.630000      1.2320931E-25
   5.640000      1.2722743E-25
   5.650000      1.3101388E-25
   5.660000      1.3453461E-25
   5.670000      1.3775402E-25
   5.680000      1.4063511E-25
   5.690000      1.4313943E-25
   5.700000      1.4522716E-25
   5.710000      1.4685717E-25
   5.720000      1.4798706E-25
   5.730000      1.4857329E-25
   5.740000      1.4857119E-25
   5.750000      1.4793515E-25
   5.760000      1.4661862E-25
   5.770000      1.4457437E-25
   5.780000      1.4175451E-25
   5.790000      1.3811074E-25
   5.800000      1.3359442E-25
   5.810000      1.2815685E-25
   5.820000      1.2174937E-25
   5.830000      1.1432365E-25
   5.840000      1.0583189E-25
   5.850000      9.6227096E-26
   5.860000      8.5463231E-26
   5.870000      7.3495576E-26
   5.880000      6.0281040E-26
   5.890000      4.5778436E-26
   5.900000      2.9948762E-26
   5.910000      1.2755565E-26
   5.920000     -5.8347592E-27
   5.930000     -2.5852608E-26
   5.940000     -4.7324789E-26
   5.950000     -7.0274108E-26
   5.960000     -9.4719010E-26
   5.970000     -1.2067322E-25
   5.980000     -1.4814529E-25
   5.990000     -1.7713817E-25
   6.000000     -2.0764880E-25
   6.010000     -2.3966768E-25
   6.020000     -2.7317861E-25
   6.030000     -3.0815796E-25
   6.040000     -3.4457437E-25
   6.050000     -3.8238829E-25
   6.060000     -4.2155149E-25
   6.070000     -4.6200679E-25
   6.080000     -5.0368739E-25
   6.090000     -5.4651652E-25
   6.100000     -5.9040692E-25
   6.110000     -6.3526032E-25
   6.120000     -6.8096707E-25
   6.130000     -7.2740613E-25
   6.140000     -7.7444388E-25
   6.150000     -8.2193459E-25
   6.160000     -8.6971964E-25
   6.170000     -9.1762687E-25
   6.180000     -9.6547138E-25
   6.190000     -1.0130541E-24
   6.200000     -1.0601622E-24
   6.210000     -1.1065687E-24
   6.220000     -1.1520325E-24
   6.230000     -1.1962987E-24
   6.240000     -1.2390973E-24
   6.250000     -1.2801447E-24
   6.260000     -1.3191432E-24
   6.270000     -1.3557811E-24
   6.280000     -1.3897333E-24
   6.290000     -1.4206612E-24
   6.300000     -1.4482131E-24
   6.310000     -1.4720251E-24
   6.320000     -1.4917215E-24
   6.330000     -1.5069150E-24
   6.340000     -1.5172083E-24
   6.350000     -1.5221939E-24
   6.360000     -1.5214560E-24
   6.370000     -1.5145704E-24
   6.380000     -1.5011070E-24
   6.390000     -1.4806298E-24
   6.400000     -1.4526992E-24
   6.410000     -1.4168728E-24
   6.420000     -1.3727067E-24
   6.430000     -1.3197581E-24
   6.440000     -1.2575863E-24
   6.450000     -1.1857552E-24
   6.460000     -1.1038351E-24
   6.470000     -1.0114052E-24
   6.480000     -9.0805562E-25
   6.490000     -7.9338980E-25
   6.500000     -6.6702711E-25
   6.510000     -5.2860529E-25
   6.520000     -3.7778366E-25
   6.530000     -2.1424639E-25
   6.540000     -3.7704673E-26
   6.550000      1.5209984E-25
   6.560000      3.5539116E-25
   6.570000      5.7235665E-25
   6.580000      8.0314289E-25
   6.590000      1.0478522E-24
   6.600000      1.3065395E-24
   6.610000      1.5792080E-24
   6.620000      1.8658065E-24
   6.630000      2.1662257E-24
   6.640000      2.4802927E-24
   6.650000      2.8077692E-24
   6.660000      3.1483472E-24
   6.670000      3.5016455E-24
   6.680000      3.8672052E-24
   6.690000      4.2444878E-24
   6.700000      4.6328693E-24
   6.710000      5.0316388E-24
   6.720000      5.4399943E-24
   6.730000      5.8570394E-24
   6.740000      6.2817795E-24
   6.750000      6.7131195E-24
   6.760000      7.1498613E-24
   6.770000      7.5907005E-24
   6.780000      8.0342249E-24
   6.790000      8.4789129E-24
   6.800000      8.9231291E-24
   6.810000      9.3651295E-24
   6.820000      9.8030522E-24
   6.830000      1.0234920E-23
   6.840000      1.0658640E-23
   6.850000      1.1072007E-23
   6.860000      1.1472695E-23
   6.870000      1.1858271E-23
   6.880000      1.2226184E-23
   6.890000      1.2573774E-23
   6.900000      1.2898274E-23
   6.910000      1.3196816E-23
   6.920000      1.3466430E-23
   6.930000      1.3704047E-23
   6.940000      1.3906510E-23
   6.950000      1.4070581E-23
   6.960000      1.4192939E-23
   6.970000      1.4270197E-23
   6.980000      1.4298909E-23
   6.990000      1.4275571E-23
   7.000000      1.4196641E-23
   7.010000      1.4058539E-23
   7.020000      1.3857675E-23
   7.030000      1.3590444E-23
   7.040000      1.3253247E-23
   7.050000      1.2842506E-23
   7.060000      1.2354676E-23