  -2.600000      0.0000000E+00
  -2.590000      0.0000000E+00
  -2.580000      0.0000000E+00
  -2.570000      0.0000000E+00
  -2.560000      0.0000000E+00
  -2.550000      0.0000000E+00
  -2.540000      0.0000000E+00
  -2.530000      0.0000000E+00
  -2.520000      0.0000000E+00
  -2.510000      0.0000000E+00
  -2.500000      0.0000000E+00
  -2.490000      0.0000000E+00
  -2.480000      0.0000000E+00
  -2.470000      0.0000000E+00
  -2.460000      0.0000000E+00
  -2.450000      0.0000000E+00
  -2.440000      0.0000000E+00
  -2.430000      0.0000000E+00
  -2.420000      0.0000000E+00
  -2.410000      0.0000000E+00
  -2.400000      0.0000000E+00
  -2.390000      0.0000000E+00
  -2.380000      0.0000000E+00
  -2.370000      0.0000000E+00
  -2.360000      0.0000000E+00
  -2.350000      0.0000000E+00
  -2.340000      0.0000000E+00
  -2.330000      0.0000000E+00
  -2.320000      0.0000000E+00
  -2.310000      0.0000000E+00
  -2.300000      0.0000000E+00
  -2.290000      0.0000000E+00
  -2.280000      0.0000000E+00
  -2.270000      0.0000000E+00
  -2.260000      0.0000000E+00
  -2.250000      0.0000000E+00
  -2.240000      0.0000000E+00
  -2.230000      0.0000000E+00
  -2.220000      0.0000000E+00
  -2.210000      0.0000000E+00
  -2.200000      0.0000000E+00
  -2.190000      0.0000000E+00
  -2.180000      0.0000000E+00
  -2.170000      0.0000000E+00
  -2.160000      0.0000000E+00
  -2.150000      0.0000000E+00
  -2.140000      0.0000000E+00
  -2.130000      0.0000000E+00
  -2.120000      0.0000000E+00
  -2.110000      0.0000000E+00
  -2.100000      0.0000000E+00
  -2.090000      0.0000000E+00
  -2.080000      0.0000000E+00
  -2.070000      0.0000000E+00
  -2.060000      0.0000000E+00
  -2.050000      0.0000000E+00
  -2.040000      0.0000000E+00
  -2.030000      0.0000000E+00
  -2.020000      0.0000000E+00
  -2.010000      0.0000000E+00
  -2.000000      0.0000000E+00
  -1.990000      0.0000000E+00
  -1.980000      0.0000000E+00
  -1.970000      0.0000000E+00
  -1.960000      0.0000000E+00
  -1.950000      0.0000000E+00
  -1.940000      0.0000000E+00
  -1.930000      0.0000000E+00
  -1.920000      0.0000000E+00
  -1.910000      0.0000000E+00
  -1.900000      0.0000000E+00
  -1.890000      0.0000000E+00
  -1.880000      0.0000000E+00
  -1.870000      0.0000000E+00
  -1.860000      0.0000000E+00
  -1.850000      0.0000000E+00
  -1.840000      0.0000000E+00
  -1.830000      0.0000000E+00
  -1.820000      0.0000000E+00
  -1.810000      0.0000000E+00
  -1.800000      0.0000000E+00
  -1.790000      0.0000000E+00
  -1.780000      0.0000000E+00
  -1.770000      0.0000000E+00
  -1.760000      0.0000000E+00
  -1.750000      0.0000000E+00
  -1.740000      0.0000000E+00
  -1.730000      0.0000000E+00
  -1.720000      0.0000000E+00
  -1.710000      0.0000000E+00
  -1.700000      0.0000000E+00
  -1.690000      0.0000000E+00
  -1.680000      0.0000000E+00
  -1.670000      0.0000000E+00
  -1.660000      0.0000000E+00
  -1.650000      0.0000000E+00
  -1.640000      0.0000000E+00
  -1.630000      0.0000000E+00
  -1.620000      0.0000000E+00
  -1.610000      0.0000000E+00
  -1.600000      0.0000000E+00
  -1.590000      0.0000000E+00
  -1.580000      0.0000000E+00
  -1.570000      0.0000000E+00
  -1.560000      0.0000000E+00
  -1.550000      0.0000000E+00
  -1.540000      0.0000000E+00
  -1.530000      0.0000000E+00
  -1.520000      0.0000000E+00
  -1.510000      0.0000000E+00
  -1.500000      0.0000000E+00
  -1.490000      0.0000000E+00
  -1.480000      0.0000000E+00
  -1.470000      0.0000000E+00
  -1.460000      0.0000000E+00
  -1.450000      0.0000000E+00
  -1.440000      0.0000000E+00
  -1.430000      0.0000000E+00
  -1.420000      0.0000000E+00
  -1.410000      0.0000000E+00
  -1.400000      0.0000000E+00
  -1.390000      0.0000000E+00
  -1.380000      0.0000000E+00
  -1.370000      0.0000000E+00
  -1.360000      0.0000000E+00
  -1.350000      0.0000000E+00
  -1.340000      0.0000000E+00
  -1.330000      0.0000000E+00
  -1.320000      0.0000000E+00
  -1.310000      0.0000000E+00
  -1.300000      0.0000000E+00
  -1.290000      0.0000000E+00
  -1.280000      0.0000000E+00
  -1.270000      0.0000000E+00
  -1.260000      0.0000000E+00
  -1.250000      0.0000000E+00
  -1.240000      0.0000000E+00
  -1.230000      0.0000000E+00
  -1.220000      0.0000000E+00
  -1.210000      0.0000000E+00
  -1.200000      0.0000000E+00
  -1.190000      0.0000000E+00
  -1.180000      0.0000000E+00
  -1.170000      0.0000000E+00
  -1.160000      0.0000000E+00
  -1.150000      0.0000000E+00
  -1.140000      0.0000000E+00
  -1.130000      0.0000000E+00
  -1.120000      0.0000000E+00
  -1.110000      0.0000000E+00
  -1.100000      0.0000000E+00
  -1.090000      0.0000000E+00
  -1.080000      0.0000000E+00
  -1.070000      0.0000000E+00
  -1.060000      0.0000000E+00
  -1.050000      0.0000000E+00
  -1.040000      0.0000000E+00
  -1.030000      0.0000000E+00
  -1.020000      0.0000000E+00
  -1.010000      0.0000000E+00
  -1.000000      0.0000000E+00
 -0.9900000      0.0000000E+00
 -0.9800000      0.0000000E+00
 -0.9700000      0.0000000E+00
 -0.9600000      0.0000000E+00
 -0.9500000      0.0000000E+00
 -0.9400000      0.0000000E+00
 -0.9300000      0.0000000E+00
 -0.9200000      0.0000000E+00
 -0.9100000      0.0000000E+00
 -0.9000000      0.0000000E+00
 -0.8900000      0.0000000E+00
 -0.8800000      0.0000000E+00
 -0.8700000      0.0000000E+00
 -0.8600000      0.0000000E+00
 -0.8500000      0.0000000E+00
 -0.8400000      0.0000000E+00
 -0.8300000      0.0000000E+00
 -0.8200000      0.0000000E+00
 -0.8100000      0.0000000E+00
 -0.8000000      0.0000000E+00
 -0.7900000      0.0000000E+00
 -0.7800000      0.0000000E+00
 -0.7700000      0.0000000E+00
 -0.7600000      0.0000000E+00
 -0.7500000      0.0000000E+00
 -0.7400000      0.0000000E+00
 -0.7300000      0.0000000E+00
 -0.7200000      0.0000000E+00
 -0.7100000      0.0000000E+00
 -0.7000000      0.0000000E+00
 -0.6900000      0.0000000E+00
 -0.6800000      0.0000000E+00
 -0.6700000      0.0000000E+00
 -0.6600000      0.0000000E+00
 -0.6500000      0.0000000E+00
 -0.6400000      0.0000000E+00
 -0.6300000      0.0000000E+00
 -0.6200000      0.0000000E+00
 -0.6100000      0.0000000E+00
 -0.6000000      0.0000000E+00
 -0.5900000      0.0000000E+00
 -0.5800000      0.0000000E+00
 -0.5700000      0.0000000E+00
 -0.5600000      0.0000000E+00
 -0.5500000      0.0000000E+00
 -0.5400000      0.0000000E+00
 -0.5300000      0.0000000E+00
 -0.5200000      0.0000000E+00
 -0.5100000      0.0000000E+00
 -0.5000000      0.0000000E+00
 -0.4900000      0.0000000E+00
 -0.4800000      0.0000000E+00
 -0.4700000      0.0000000E+00
 -0.4600000      0.0000000E+00
 -0.4500000      0.0000000E+00
 -0.4400000      0.0000000E+00
 -0.4300000      0.0000000E+00
 -0.4200000      0.0000000E+00
 -0.4100000      0.0000000E+00
 -0.4000000      0.0000000E+00
 -0.3900000      0.0000000E+00
 -0.3800000      0.0000000E+00
 -0.3700000      0.0000000E+00
 -0.3600000      0.0000000E+00
 -0.3500000      0.0000000E+00
 -0.3400000      0.0000000E+00
 -0.3300000      0.0000000E+00
 -0.3200000      0.0000000E+00
 -0.3100000      0.0000000E+00
 -0.3000000      0.0000000E+00
 -0.2900000      0.0000000E+00
 -0.2800000      0.0000000E+00
 -0.2700000      0.0000000E+00
 -0.2600000      0.0000000E+00
 -0.2500000      0.0000000E+00
 -0.2400000      0.0000000E+00
 -0.2300000      0.0000000E+00
 -0.2200000      0.0000000E+00
 -0.2100000      0.0000000E+00
 -0.2000000      0.0000000E+00
 -0.1900000      0.0000000E+00
 -0.1800000      0.0000000E+00
 -0.1700000      0.0000000E+00
 -0.1600000      0.0000000E+00
 -0.1500000      0.0000000E+00
 -0.1400000      0.0000000E+00
 -0.1300000      0.0000000E+00
 -0.1200000      0.0000000E+00
 -0.1100000      0.0000000E+00
 -0.1000000      0.0000000E+00
 -9.0000004E-02  0.0000000E+00
 -7.9999998E-02  0.0000000E+00
 -7.0000000E-02  0.0000000E+00
 -5.9999999E-02  0.0000000E+00
 -5.0000001E-02  0.0000000E+00
 -3.9999999E-02  0.0000000E+00
 -2.9999999E-02  0.0000000E+00
 -2.0000000E-02  0.0000000E+00
 -9.9999998E-03  0.0000000E+00
 -3.4694470E-17  0.0000000E+00
  9.9999998E-03  0.0000000E+00
  2.0000000E-02  0.0000000E+00
  2.9999999E-02  0.0000000E+00
  3.9999999E-02  0.0000000E+00
  5.0000001E-02  0.0000000E+00
  5.9999999E-02  0.0000000E+00
  7.0000000E-02  0.0000000E+00
  7.9999998E-02  0.0000000E+00
  9.0000004E-02  0.0000000E+00
  0.1000000      0.0000000E+00
  0.1100000      0.0000000E+00
  0.1200000      0.0000000E+00
  0.1300000      0.0000000E+00
  0.1400000      0.0000000E+00
  0.1500000      0.0000000E+00
  0.1600000      0.0000000E+00
  0.1700000      0.0000000E+00
  0.1800000      0.0000000E+00
  0.1900000      0.0000000E+00
  0.2000000      0.0000000E+00
  0.2100000      0.0000000E+00
  0.2200000      0.0000000E+00
  0.2300000      0.0000000E+00
  0.2400000      0.0000000E+00
  0.2500000      0.0000000E+00
  0.2600000      0.0000000E+00
  0.2700000      0.0000000E+00
  0.2800000      0.0000000E+00
  0.2900000      0.0000000E+00
  0.3000000      0.0000000E+00
  0.3100000      0.0000000E+00
  0.3200000      0.0000000E+00
  0.3300000      0.0000000E+00
  0.3400000      0.0000000E+00
  0.3500000      0.0000000E+00
  0.3600000      0.0000000E+00
  0.3700000      1.2558758E-38
  0.3800000      1.5490390E-38
  0.3900000      1.8768103E-38
  0.4000000      2.2251451E-38
  0.4100000      2.5890943E-38
  0.4200000      2.9563068E-38
  0.4300000      3.3030090E-38
  0.4400000      3.6268469E-38
  0.4500000      4.1282185E-38
  0.4600000      4.7379342E-38
  0.4700000      5.1991009E-38
  0.4800000      5.4626448E-38
  0.4900000      5.5182775E-38
  0.5000000      5.3913871E-38
  0.5100000      5.0449850E-38
  0.5200000      4.3071024E-38
  0.5300000      2.0425664E-38
  0.5400000     -2.0196974E-38
  0.5500000     -7.4229257E-38
  0.5600000     -1.4106021E-37
  0.5700000     -2.1900104E-37
  0.5800000     -3.0747468E-37
  0.5900000     -4.0624037E-37
  0.6000000     -5.2139908E-37
  0.6100000     -6.5258487E-37
  0.6200000     -7.9848004E-37
  0.6300000     -9.4324409E-37
  0.6400000     -1.0828230E-36
  0.6500000     -1.1966004E-36
  0.6600000     -1.2652921E-36
  0.6700000     -1.2856437E-36
  0.6800000     -1.2532801E-36
  0.6900000     -1.1848494E-36
  0.7000000     -1.0612552E-36
  0.7100000     -8.6670270E-37
  0.7200000     -6.2074047E-37
  0.7300000     -3.2491764E-37
  0.7400000      1.9977277E-38
  0.7500000      4.0336459E-37
  0.7600000      8.0972074E-37
  0.7700000      1.2395802E-36
  0.7800000      1.7108583E-36
  0.7900000      2.2148967E-36
  0.8000000      2.7337526E-36
  0.8100000      3.2817016E-36
  0.8200000      3.8824468E-36
  0.8300000      4.6320809E-36
  0.8400000      5.4971921E-36
  0.8500000      6.5758183E-36
  0.8600000      8.0023062E-36
  0.8700000      9.4604853E-36
  0.8800000      1.0859679E-35
  0.8900000      1.2333533E-35
  0.9000000      1.3867237E-35
  0.9100000      1.5459880E-35
  0.9200000      1.6791463E-35
  0.9300000      1.7784525E-35
  0.9400000      1.8605738E-35
  0.9500000      1.9178750E-35
  0.9600000      1.9313836E-35
  0.9700000      1.8977617E-35
  0.9800000      1.8275935E-35
  0.9900000      1.7063638E-35
   1.000000      1.5373893E-35
   1.010000      1.2969749E-35
   1.020000      9.8082857E-36
   1.030000      6.2860464E-36
   1.040000      2.6490957E-36
   1.050000     -8.2806892E-37
   1.060000     -4.4005909E-36
   1.070000     -8.3132088E-36
   1.080000     -1.2424964E-35
   1.090000     -1.6601431E-35
   1.100000     -2.0474938E-35
   1.110000     -2.4055058E-35
   1.120000     -2.7814946E-35
   1.130000     -3.1890789E-35
   1.140000     -3.6357687E-35
   1.150000     -4.1067852E-35
   1.160000     -4.5761702E-35
   1.170000     -5.0642099E-35
   1.180000     -5.6379309E-35
   1.190000     -6.2911379E-35
   1.200000     -6.9692948E-35
   1.210000     -7.6421534E-35
   1.220000     -8.3245296E-35
   1.230000     -9.0916826E-35
   1.240000     -9.9787773E-35
   1.250000     -1.0957437E-34
   1.260000     -1.1972834E-34
   1.270000     -1.2985638E-34
   1.280000     -1.3977112E-34
   1.290000     -1.4796042E-34
   1.300000     -1.5435253E-34
   1.310000     -1.6012824E-34
   1.320000     -1.6562697E-34
   1.330000     -1.6979498E-34
   1.340000     -1.7182977E-34
   1.350000     -1.7291409E-34
   1.360000     -1.7303508E-34
   1.370000     -1.7182893E-34
   1.380000     -1.6926010E-34
   1.390000     -1.6532768E-34
   1.400000     -1.5999054E-34
   1.410000     -1.5284467E-34
   1.420000     -1.4466841E-34
   1.430000     -1.3544591E-34
   1.440000     -1.2431027E-34
   1.450000     -1.1165265E-34
   1.460000     -9.5371639E-35
   1.470000     -7.7275879E-35
   1.480000     -5.7923500E-35
   1.490000     -3.5394089E-35
   1.500000     -9.9413611E-36
   1.510000      1.5640809E-35
   1.520000      3.4545747E-35
   1.530000      4.9845730E-35
   1.540000      6.7015478E-35
   1.550000      8.5279842E-35
   1.560000      1.0583218E-34
   1.570000      1.3218280E-34
   1.580000      1.6299086E-34
   1.590000      1.9535261E-34
   1.600000      2.3358049E-34
   1.610000      2.7948062E-34
   1.620000      3.3228353E-34
   1.630000      3.9318472E-34
   1.640000      4.6164790E-34
   1.650000      5.3790204E-34
   1.660000      6.2167245E-34
   1.670000      7.1227041E-34
   1.680000      8.1062641E-34
   1.690000      9.1656931E-34
   1.700000      1.0268695E-33
   1.710000      1.1400266E-33
   1.720000      1.2563765E-33
   1.730000      1.3733971E-33
   1.740000      1.4901574E-33
   1.750000      1.6082811E-33
   1.760000      1.7276198E-33
   1.770000      1.8420898E-33
   1.780000      1.9486743E-33
   1.790000      2.0492547E-33
   1.800000      2.1435674E-33
   1.810000      2.2306901E-33
   1.820000      2.3079696E-33
   1.830000      2.3736416E-33
   1.840000      2.4259390E-33
   1.850000      2.4669231E-33
   1.860000      2.4941735E-33
   1.870000      2.5028626E-33
   1.880000      2.4931159E-33
   1.890000      2.4609790E-33
   1.900000      2.4055673E-33
   1.910000      2.3261542E-33
   1.920000      2.2202921E-33
   1.930000      2.0844716E-33
   1.940000      1.9129707E-33
   1.950000      1.7038508E-33
   1.960000      1.4511502E-33
   1.970000      1.1481848E-33
   1.980000      7.9311274E-34
   1.990000      3.8129717E-34
   2.000000     -9.3499837E-35
   2.010000     -6.3517598E-34
   2.020000     -1.2472234E-33
   2.030000     -1.9322523E-33
   2.040000     -2.6919972E-33
   2.050000     -3.5293847E-33
   2.060000     -4.4439248E-33
   2.070000     -5.4344985E-33
   2.080000     -6.5003802E-33
   2.090000     -7.6375585E-33
   2.100000     -8.8422037E-33
   2.110000     -1.0109711E-32
   2.120000     -1.1432988E-32
   2.130000     -1.2803487E-32
   2.140000     -1.4211528E-32
   2.150000     -1.5645886E-32
   2.160000     -1.7094333E-32
   2.170000     -1.8543636E-32
   2.180000     -1.9978561E-32
   2.190000     -2.1382203E-32
   2.200000     -2.2736794E-32
   2.210000     -2.4023387E-32
   2.220000     -2.5221345E-32
   2.230000     -2.6308910E-32
   2.240000     -2.7262106E-32
   2.250000     -2.8054733E-32
   2.260000     -2.8661006E-32
   2.270000     -2.9053110E-32
   2.280000     -2.9200261E-32
   2.290000     -2.9070372E-32
   2.300000     -2.8630120E-32
   2.310000     -2.7844866E-32
   2.320000     -2.6678362E-32
   2.330000     -2.5093260E-32
   2.340000     -2.3051468E-32
   2.350000     -2.0514727E-32
   2.360000     -1.7444636E-32
   2.370000     -1.3803389E-32
   2.380000     -9.5542366E-33
   2.390000     -4.6627919E-33
   2.400000      9.0265477E-34
   2.410000      7.1710967E-33
   2.420000      1.4166974E-32
   2.430000      2.1909975E-32
   2.440000      3.0414021E-32
   2.450000      3.9686323E-32
   2.460000      4.9726979E-32
   2.470000      6.0528061E-32
   2.480000      7.2073126E-32
   2.490000      8.4336642E-32
   2.500000      9.7283530E-32
   2.510000      1.1086872E-31
   2.520000      1.2503685E-31
   2.530000      1.3972216E-31
   2.540000      1.5484816E-31
   2.550000      1.7032749E-31
   2.560000      1.8606175E-31
   2.570000      2.0194158E-31
   2.580000      2.1784642E-31
   2.590000      2.3364438E-31
   2.600000      2.4919220E-31
   2.610000      2.6433501E-31
   2.620000      2.7890632E-31
   2.630000      2.9272739E-31
   2.640000      3.0560725E-31
   2.650000      3.1734297E-31
   2.660000      3.2771899E-31
   2.670000      3.3650726E-31
   2.680000      3.4346748E-31
   2.690000      3.4834719E-31
   2.700000      3.5088252E-31
   2.710000      3.5079888E-31
   2.720000      3.4781211E-31
   2.730000      3.4163002E-31
   2.740000      3.3195422E-31
   2.750000      3.1848242E-31
   2.760000      3.0091118E-31
   2.770000      2.7893884E-31
   2.780000      2.5226948E-31
   2.790000      2.2061645E-31
   2.800000      1.8370645E-31
   2.810000      1.4128423E-31
   2.820000      9.3117208E-32
   2.830000      3.9000111E-32
   2.840000     -2.1240238E-32
   2.850000     -8.7740238E-32
   2.860000     -1.6059483E-31
   2.870000     -2.3985311E-31
   2.880000     -3.2551439E-31
   2.890000     -4.1752431E-31
   2.900000     -5.1577137E-31
   2.910000     -6.2008408E-31
   2.920000     -7.3022805E-31
   2.930000     -8.4590379E-31
   2.940000     -9.6674461E-31
   2.950000     -1.0923149E-30
   2.960000     -1.2221087E-30
   2.970000     -1.3555482E-30
   2.980000     -1.4919821E-30
   2.990000     -1.6306849E-30
   3.000000     -1.7708552E-30
   3.010000     -1.9116141E-30
   3.020000     -2.0520050E-30
   3.030000     -2.1909908E-30
   3.040000     -2.3274530E-30
   3.050000     -2.4601914E-30
   3.060000     -2.5879225E-30
   3.070000     -2.7092788E-30
   3.080000     -2.8228107E-30
   3.090000     -2.9269853E-30
   3.100000     -3.0201909E-30
   3.110000     -3.1007391E-30
   3.120000     -3.1668706E-30
   3.130000     -3.2167612E-30
   3.140000     -3.2485315E-30
   3.150000     -3.2602552E-30
   3.160000     -3.2499752E-30
   3.170000     -3.2157154E-30
   3.180000     -3.1554985E-30
   3.190000     -3.0673643E-30
   3.200000     -2.9493894E-30
   3.210000     -2.7997110E-30
   3.220000     -2.6165479E-30
   3.230000     -2.3982244E-30
   3.240000     -2.1431963E-30
   3.250000     -1.8500733E-30
   3.260000     -1.5176456E-30
   3.270000     -1.1449070E-30
   3.280000     -7.3107722E-31
   3.290000     -2.7562423E-31
   3.300000      2.2171382E-31
   3.310000      7.6090967E-31
   3.320000      1.3416289E-30
   3.330000      1.9632136E-30
   3.340000      2.6246665E-30
   3.350000      3.3246366E-30
   3.360000      4.0614045E-30
   3.370000      4.8328714E-30
   3.380000      5.6365439E-30
   3.390000      6.4695244E-30
   3.400000      7.3284960E-30
   3.410000      8.2097105E-30
   3.420000      9.1089746E-30
   3.430000      1.0021640E-29
   3.440000      1.0942589E-29
   3.450000      1.1866221E-29
   3.460000      1.2786441E-29
   3.470000      1.3696653E-29
   3.480000      1.4589748E-29
   3.490000      1.5458111E-29
   3.500000      1.6293607E-29
   3.510000      1.7087597E-29
   3.520000      1.7830946E-29
   3.530000      1.8514043E-29
   3.540000      1.9126830E-29
   3.550000      1.9658835E-29
   3.560000      2.0099216E-29
   3.570000      2.0436818E-29
   3.580000      2.0660236E-29
   3.590000      2.0757885E-29
   3.600000      2.0718086E-29
   3.610000      2.0529149E-29
   3.620000      2.0179483E-29
   3.630000      1.9657684E-29
   3.640000      1.8952654E-29
   3.650000      1.8053711E-29
   3.660000      1.6950699E-29
   3.670000      1.5634112E-29
   3.680000      1.4095206E-29
   3.690000      1.2326111E-29
   3.700000      1.0319952E-29
   3.710000      8.0709547E-30
   3.720000      5.5745565E-30
   3.730000      2.8275114E-30
   3.740000     -1.7201156E-31
   3.750000     -3.4243181E-30
   3.760000     -6.9280869E-30
   3.770000     -1.0680274E-29
   3.780000     -1.4676007E-29
   3.790000     -1.8908490E-29
   3.800000     -2.3368895E-29
   3.810000     -2.8046246E-29
   3.820000     -3.2927323E-29
   3.830000     -3.7996542E-29
   3.840000     -4.3235827E-29
   3.850000     -4.8624516E-29
   3.860000     -5.4139227E-29
   3.870000     -5.9753770E-29
   3.880000     -6.5439001E-29
   3.890000     -7.1162780E-29
   3.900000     -7.6889846E-29
   3.910000     -8.2581770E-29
   3.920000     -8.8196897E-29
   3.930000     -9.3690347E-29
   3.940000     -9.9013984E-29
   3.950000     -1.0411651E-28
   3.960000     -1.0894350E-28
   3.970000     -1.1343751E-28
   3.980000     -1.1753826E-28
   3.990000     -1.2118282E-28
   4.000000     -1.2430578E-28
   4.010000     -1.2683958E-28
   4.020000     -1.2871481E-28
   4.030000     -1.2986052E-28
   4.040000     -1.3020459E-28
   4.050000     -1.2967412E-28
   4.060000     -1.2819588E-28
   4.070000     -1.2569676E-28
   4.080000     -1.2210418E-28
   4.090000     -1.1734657E-28
   4.100000     -1.1135390E-28
   4.110000     -1.0405813E-28
   4.120000     -9.5393718E-29
   4.130000     -8.5298185E-29
   4.140000     -7.3712573E-29
   4.150000     -6.0582052E-29
   4.160000     -4.5856434E-29
   4.170000     -2.9490754E-29
   4.180000     -1.1445905E-29
   4.190000      8.3107789E-30
   4.200000      2.9804873E-29
   4.210000      5.3054086E-29
   4.220000      7.8067588E-29
   4.230000      1.0484527E-28
   4.240000      1.3337685E-28
   4.250000      1.6364121E-28
   4.260000      1.9560535E-28
   4.270000      2.2922363E-28
   4.280000      2.6443687E-28
   4.290000      3.0117141E-28
   4.300000      3.3933812E-28
   4.310000      3.7883179E-28
   4.320000      4.1953009E-28
   4.330000      4.6129296E-28
   4.340000      5.0396165E-28
   4.350000      5.4735844E-28
   4.360000      5.9128577E-28
   4.370000      6.3552607E-28
   4.380000      6.7984119E-28
   4.390000      7.2397233E-28
   4.400000      7.6763995E-28
   4.410000      8.1054399E-28
   4.420000      8.5236373E-28
   4.430000      8.9275818E-28
   4.440000      9.3136682E-28
   4.450000      9.6780975E-28
   4.460000      1.0016886E-27
   4.470000      1.0325871E-27
   4.480000      1.0600720E-27
   4.490000      1.0836945E-27
   4.500000      1.1029906E-27
   4.510000      1.1174827E-27
   4.520000      1.1266808E-27
   4.530000      1.1300835E-27
   4.540000      1.1271802E-27
   4.550000      1.1174520E-27
   4.560000      1.1003740E-27
   4.570000      1.0754167E-27
   4.580000      1.0420483E-27
   4.590000      9.9973733E-28
   4.600000      9.4795427E-28
   4.610000      8.8617497E-28
   4.620000      8.1388365E-28
   4.630000      7.3057562E-28
   4.640000      6.3576127E-28
   4.650000      5.2896947E-28
   4.660000      4.0975200E-28
   4.670000      2.7768756E-28
   4.680000      1.3238661E-28
   4.690000     -2.6504109E-29
   4.700000     -1.9929641E-28
   4.710000     -3.8625529E-28
   4.720000     -5.8759434E-28
   4.730000     -8.0346928E-28
   4.740000     -1.0339731E-27
   4.750000     -1.2791308E-27
   4.760000     -1.5388928E-27
   4.770000     -1.8131307E-27
   4.780000     -2.1016312E-27
   4.790000     -2.4040917E-27
   4.800000     -2.7201137E-27
   4.810000     -3.0491991E-27
   4.820000     -3.3907449E-27
   4.830000     -3.7440386E-27
   4.840000     -4.1082547E-27
   4.850000     -4.4824490E-27
   4.860000     -4.8655558E-27
   4.870000     -5.2563820E-27
   4.880000     -5.6536059E-27
   4.890000     -6.0557720E-27
   4.900000     -6.4612889E-27
   4.910000     -6.8684239E-27
   4.920000     -7.2753028E-27
   4.930000     -7.6799045E-27
   4.940000     -8.0800596E-27
   4.950000     -8.4734485E-27
   4.960000     -8.8575999E-27
   4.970000     -9.2298906E-27
   4.980000     -9.5875420E-27
   4.990000     -9.9276219E-27
   5.000000     -1.0247047E-26
   5.010000     -1.0542581E-26
   5.020000     -1.0810841E-26
   5.030000     -1.1048297E-26
   5.040000     -1.1251280E-26
   5.050000     -1.1415988E-26
   5.060000     -1.1538491E-26
   5.070000     -1.1614741E-26
   5.080000     -1.1640582E-26
   5.090000     -1.1611763E-26
   5.100000     -1.1523948E-26
   5.110000     -1.1372731E-26
   5.120000     -1.1153653E-26
   5.130000     -1.0862215E-26
   5.140000     -1.0493899E-26
   5.150000     -1.0044190E-26
   5.160000     -9.5085888E-27
   5.170000     -8.8826408E-27
   5.180000     -8.1619547E-27
   5.190000     -7.3422243E-27
   5.200000     -6.4192609E-27
   5.210000     -5.3890104E-27
   5.220000     -4.2475857E-27
   5.230000     -2.9912937E-27
   5.240000     -1.6166626E-27
   5.250000     -1.2047419E-28
   5.260000      1.5002067E-27
   5.270000      3.2479984E-27
   5.280000      5.1251692E-27
   5.290000      7.1335991E-27
   5.300000      9.2747424E-27
   5.310000      1.1549597E-26
   5.320000      1.3958658E-26
   5.330000      1.6501873E-26
   5.340000      1.9178609E-26
   5.350000      2.1987604E-26
   5.360000      2.4926921E-26
   5.370000      2.7993903E-26
   5.380000      3.1185135E-26
   5.390000      3.4496382E-26
   5.400000      3.7922565E-26
   5.410000      4.1457697E-26
   5.420000      4.5094836E-26
   5.430000      4.8826062E-26
   5.440000      5.2642408E-26
   5.450000      5.6533834E-26
   5.460000      6.0489201E-26
   5.470000      6.4496183E-26
   5.480000      6.8541308E-26
   5.490000      7.2609845E-26
   5.500000      7.6685865E-26
   5.510000      8.0752123E-26
   5.520000      8.4790104E-26
   5.530000      8.8779978E-26
   5.540000      9.2700586E-26
   5.550000      9.6529452E-26
   5.560000      1.0024272E-25
   5.570000      1.0381523E-25
   5.580000      1.0722046E-25
   5.590000      1.1043057E-25
   5.600000      1.1341638E-25
   5.610000      1.1614745E-25
   5.620000      1.1859204E-25
   5.630000      1.2071715E-25
   5.640000      1.2248859E-25
   5.650000      1.2387102E-25
   5.660000      1.2482797E-25
   5.670000      1.2532193E-25
   5.680000      1.2531444E-25
   5.690000      1.2476614E-25
   5.700000      1.2363685E-25
   5.710000      1.2188570E-25
   5.720000      1.1947125E-25
   5.730000      1.1635160E-25
   5.740000      1.1248453E-25
   5.750000      1.0782768E-25
   5.760000      1.0233870E-25
   5.770000      9.5975406E-26
   5.780000      8.8696001E-26
   5.790000      8.0459283E-26
   5.800000      7.1224864E-26
   5.810000      6.0953384E-26
   5.820000      4.9606778E-26
   5.830000      3.7148523E-26
   5.840000      2.3543934E-26
   5.850000      8.7604136E-27
   5.860000     -7.2322691E-27
   5.870000     -2.4461583E-26
   5.880000     -4.2952010E-26
   5.890000     -6.2724697E-26
   5.900000     -8.3797076E-26
   5.910000     -1.0618259E-25
   5.920000     -1.2989027E-25
   5.930000     -1.5492443E-25
   5.940000     -1.8128424E-25
   5.950000     -2.0896341E-25
   5.960000     -2.3794974E-25
   5.970000     -2.6822484E-25
   5.980000     -2.9976357E-25
   5.990000     -3.3253374E-25
   6.000000     -3.6649578E-25
   6.010000     -4.0160216E-25
   6.020000     -4.3779709E-25
   6.030000     -4.7501605E-25
   6.040000     -5.1318552E-25
   6.050000     -5.5222245E-25
   6.060000     -5.9203395E-25
   6.070000     -6.3251676E-25
   6.080000     -6.7355715E-25
   6.090000     -7.1503038E-25
   6.100000     -7.5680051E-25
   6.110000     -7.9871974E-25
   6.120000     -8.4062872E-25
   6.130000     -8.8235581E-25
   6.140000     -9.2371717E-25
   6.150000     -9.6451617E-25
   6.160000     -1.0045439E-24
   6.170000     -1.0435785E-24
   6.180000     -1.0813854E-24
   6.190000     -1.1177174E-24
   6.200000     -1.1523143E-24
   6.210000     -1.1849036E-24
   6.220000     -1.2152003E-24
   6.230000     -1.2429072E-24
   6.240000     -1.2677152E-24
   6.250000     -1.2893036E-24
   6.260000     -1.3073410E-24
   6.270000     -1.3214853E-24
   6.280000     -1.3313841E-24
   6.290000     -1.3366763E-24
   6.300000     -1.3369918E-24
   6.310000     -1.3319534E-24
   6.320000     -1.3211768E-24
   6.330000     -1.3042723E-24
   6.340000     -1.2808453E-24
   6.350000     -1.2504978E-24
   6.360000     -1.2128303E-24
   6.370000     -1.1674425E-24
   6.380000     -1.1139353E-24
   6.390000     -1.0519120E-24
   6.400000     -9.8098068E-25
   6.410000     -9.0075580E-25
   6.420000     -8.1086012E-25
   6.430000     -7.1092672E-25
   6.440000     -6.0060181E-25
   6.450000     -4.7954667E-25
   6.460000     -3.4744010E-25
   6.470000     -2.0398110E-25
   6.480000     -4.8891864E-26
   6.490000      1.1807974E-25
   6.500000      2.9715742E-25
   6.510000      4.8853318E-25
   6.520000      6.9236419E-25
   6.530000      9.0876964E-25
   6.540000      1.1378277E-24
   6.550000      1.3795723E-24
   6.560000      1.6339897E-24
   6.570000      1.9010144E-24
   6.580000      2.1805265E-24
   6.590000      2.4723485E-24
   6.600000      2.7762407E-24
   6.610000      3.0918993E-24
   6.620000      3.4189516E-24
   6.630000      3.7569536E-24
   6.640000      4.1053856E-24
   6.650000      4.4636499E-24
   6.660000      4.8310662E-24
   6.670000      5.2068705E-24
   6.680000      5.5902096E-24
   6.690000      5.9801400E-24
   6.700000      6.3756243E-24
   6.710000      6.7755295E-24
   6.720000      7.1786224E-24
   6.730000      7.5835700E-24
   6.740000      7.9889356E-24
   6.750000      8.3931795E-24
   6.760000      8.7946545E-24
   6.770000      9.1916061E-24
   6.780000      9.5821727E-24
   6.790000      9.9643829E-24
   6.800000      1.0336159E-23
   6.810000      1.0695315E-23
   6.820000      1.1039556E-23
   6.830000      1.1366485E-23
   6.840000      1.1673597E-23
   6.850000      1.1958290E-23
   6.860000      1.2217860E-23
   6.870000      1.2449513E-23
   6.880000      1.2650361E-23
   6.890000      1.2817433E-23
   6.900000      1.2947680E-23
   6.910000      1.3037976E-23
   6.920000      1.3085132E-23
   6.930000      1.3085898E-23
   6.940000      1.3036978E-23
   6.950000      1.2935030E-23
   6.960000      1.2776685E-23
   6.970000      1.2558553E-23
   6.980000      1.2277237E-23
   6.990000      1.1929344E-23
   7.000000      1.1511499E-23
   7.010000      1.1020358E-23
   7.020000      1.0452625E-23
   7.030000      9.8050654E-24
   7.040000      9.0745250E-24
   7.050000      8.2579451E-24
   7.060000      7.3523840E-24