  -2.600000      0.0000000E+00
  -2.590000      0.0000000E+00
  -2.580000      0.0000000E+00
  -2.570000      0.0000000E+00
  -2.560000      0.0000000E+00
  -2.550000      0.0000000E+00
  -2.540000      0.0000000E+00
  -2.530000      0.0000000E+00
  -2.520000      0.0000000E+00
  -2.510000      0.0000000E+00
  -2.500000      0.0000000E+00
  -2.490000      0.0000000E+00
  -2.480000      0.0000000E+00
  -2.470000      0.0000000E+00
  -2.460000      0.0000000E+00
  -2.450000      0.0000000E+00
  -2.440000      0.0000000E+00
  -2.430000      0.0000000E+00
  -2.420000      0.0000000E+00
  -2.410000      0.0000000E+00
  -2.400000      0.0000000E+00
  -2.390000      0.0000000E+00
  -2.380000      0.0000000E+00
  -2.370000      0.0000000E+00
  -2.360000      0.0000000E+00
  -2.350000      0.0000000E+00
  -2.340000      0.0000000E+00
  -2.330000      0.0000000E+00
  -2.320000      0.0000000E+00
  -2.310000      0.0000000E+00
  -2.300000      0.0000000E+00
  -2.290000      0.0000000E+00
  -2.280000      0.0000000E+00
  -2.270000      0.0000000E+00
  -2.260000      0.0000000E+00
  -2.250000      0.0000000E+00
  -2.240000      0.0000000E+00
  -2.230000      0.0000000E+00
  -2.220000      0.0000000E+00
  -2.210000      0.0000000E+00
  -2.200000      0.0000000E+00
  -2.190000      0.0000000E+00
  -2.180000      0.0000000E+00
  -2.170000      0.0000000E+00
  -2.160000      0.0000000E+00
  -2.150000      0.0000000E+00
  -2.140000      0.0000000E+00
  -2.130000      0.0000000E+00
  -2.120000      0.0000000E+00
  -2.110000      0.0000000E+00
  -2.100000      0.0000000E+00
  -2.090000      0.0000000E+00
  -2.080000      0.0000000E+00
  -2.070000      0.0000000E+00
  -2.060000      0.0000000E+00
  -2.050000      0.0000000E+00
  -2.040000      0.0000000E+00
  -2.030000      0.0000000E+00
  -2.020000      0.0000000E+00
  -2.010000      0.0000000E+00
  -2.000000      0.0000000E+00
  -1.990000      0.0000000E+00
  -1.980000      0.0000000E+00
  -1.970000      0.0000000E+00
  -1.960000      0.0000000E+00
  -1.950000      0.0000000E+00
  -1.940000      0.0000000E+00
  -1.930000      0.0000000E+00
  -1.920000      0.0000000E+00
  -1.910000      0.0000000E+00
  -1.900000      0.0000000E+00
  -1.890000      0.0000000E+00
  -1.880000      0.0000000E+00
  -1.870000      0.0000000E+00
  -1.860000      0.0000000E+00
  -1.850000      0.0000000E+00
  -1.840000      0.0000000E+00
  -1.830000      0.0000000E+00
  -1.820000      0.0000000E+00
  -1.810000      0.0000000E+00
  -1.800000      0.0000000E+00
  -1.790000      0.0000000E+00
  -1.780000      0.0000000E+00
  -1.770000      0.0000000E+00
  -1.760000      0.0000000E+00
  -1.750000      0.0000000E+00
  -1.740000      0.0000000E+00
  -1.730000      0.0000000E+00
  -1.720000      0.0000000E+00
  -1.710000      0.0000000E+00
  -1.700000      0.0000000E+00
  -1.690000      0.0000000E+00
  -1.680000      0.0000000E+00
  -1.670000      0.0000000E+00
  -1.660000      0.0000000E+00
  -1.650000      0.0000000E+00
  -1.640000      0.0000000E+00
  -1.630000      0.0000000E+00
  -1.620000      0.0000000E+00
  -1.610000      0.0000000E+00
  -1.600000      0.0000000E+00
  -1.590000      0.0000000E+00
  -1.580000      0.0000000E+00
  -1.570000      0.0000000E+00
  -1.560000      0.0000000E+00
  -1.550000      0.0000000E+00
  -1.540000      0.0000000E+00
  -1.530000      0.0000000E+00
  -1.520000      0.0000000E+00
  -1.510000      0.0000000E+00
  -1.500000      0.0000000E+00
  -1.490000      0.0000000E+00
  -1.480000      0.0000000E+00
  -1.470000      0.0000000E+00
  -1.460000      0.0000000E+00
  -1.450000      0.0000000E+00
  -1.440000      0.0000000E+00
  -1.430000      0.0000000E+00
  -1.420000      0.0000000E+00
  -1.410000      0.0000000E+00
  -1.400000      0.0000000E+00
  -1.390000      0.0000000E+00
  -1.380000      0.0000000E+00
  -1.370000      0.0000000E+00
  -1.360000      0.0000000E+00
  -1.350000      0.0000000E+00
  -1.340000      0.0000000E+00
  -1.330000      0.0000000E+00
  -1.320000      0.0000000E+00
  -1.310000      0.0000000E+00
  -1.300000      0.0000000E+00
  -1.290000      0.0000000E+00
  -1.280000      0.0000000E+00
  -1.270000      0.0000000E+00
  -1.260000      0.0000000E+00
  -1.250000      0.0000000E+00
  -1.240000      0.0000000E+00
  -1.230000      0.0000000E+00
  -1.220000      0.0000000E+00
  -1.210000      0.0000000E+00
  -1.200000      0.0000000E+00
  -1.190000      0.0000000E+00
  -1.180000      0.0000000E+00
  -1.170000      0.0000000E+00
  -1.160000      0.0000000E+00
  -1.150000      0.0000000E+00
  -1.140000      0.0000000E+00
  -1.130000      0.0000000E+00
  -1.120000      0.0000000E+00
  -1.110000      0.0000000E+00
  -1.100000      0.0000000E+00
  -1.090000      0.0000000E+00
  -1.080000      0.0000000E+00
  -1.070000      0.0000000E+00
  -1.060000      0.0000000E+00
  -1.050000      0.0000000E+00
  -1.040000      0.0000000E+00
  -1.030000      0.0000000E+00
  -1.020000      0.0000000E+00
  -1.010000      0.0000000E+00
  -1.000000      0.0000000E+00
 -0.9900000      0.0000000E+00
 -0.9800000      0.0000000E+00
 -0.9700000      0.0000000E+00
 -0.9600000      0.0000000E+00
 -0.9500000      0.0000000E+00
 -0.9400000      0.0000000E+00
 -0.9300000      0.0000000E+00
 -0.9200000      0.0000000E+00
 -0.9100000      0.0000000E+00
 -0.9000000      0.0000000E+00
 -0.8900000      0.0000000E+00
 -0.8800000      0.0000000E+00
 -0.8700000      0.0000000E+00
 -0.8600000      0.0000000E+00
 -0.8500000      0.0000000E+00
 -0.8400000      0.0000000E+00
 -0.8300000      0.0000000E+00
 -0.8200000      0.0000000E+00
 -0.8100000      0.0000000E+00
 -0.8000000      0.0000000E+00
 -0.7900000      0.0000000E+00
 -0.7800000      0.0000000E+00
 -0.7700000      0.0000000E+00
 -0.7600000      0.0000000E+00
 -0.7500000      0.0000000E+00
 -0.7400000      0.0000000E+00
 -0.7300000      0.0000000E+00
 -0.7200000      0.0000000E+00
 -0.7100000      0.0000000E+00
 -0.7000000      0.0000000E+00
 -0.6900000      0.0000000E+00
 -0.6800000      0.0000000E+00
 -0.6700000      0.0000000E+00
 -0.6600000      0.0000000E+00
 -0.6500000      0.0000000E+00
 -0.6400000      0.0000000E+00
 -0.6300000      0.0000000E+00
 -0.6200000      0.0000000E+00
 -0.6100000      0.0000000E+00
 -0.6000000      0.0000000E+00
 -0.5900000      0.0000000E+00
 -0.5800000      0.0000000E+00
 -0.5700000      0.0000000E+00
 -0.5600000      0.0000000E+00
 -0.5500000      0.0000000E+00
 -0.5400000      0.0000000E+00
 -0.5300000      0.0000000E+00
 -0.5200000      0.0000000E+00
 -0.5100000      0.0000000E+00
 -0.5000000      0.0000000E+00
 -0.4900000      0.0000000E+00
 -0.4800000      0.0000000E+00
 -0.4700000      0.0000000E+00
 -0.4600000      0.0000000E+00
 -0.4500000      0.0000000E+00
 -0.4400000      0.0000000E+00
 -0.4300000      0.0000000E+00
 -0.4200000      0.0000000E+00
 -0.4100000      0.0000000E+00
 -0.4000000      0.0000000E+00
 -0.3900000      0.0000000E+00
 -0.3800000      0.0000000E+00
 -0.3700000      0.0000000E+00
 -0.3600000      0.0000000E+00
 -0.3500000      0.0000000E+00
 -0.3400000      0.0000000E+00
 -0.3300000      0.0000000E+00
 -0.3200000      0.0000000E+00
 -0.3100000      0.0000000E+00
 -0.3000000      0.0000000E+00
 -0.2900000      0.0000000E+00
 -0.2800000      0.0000000E+00
 -0.2700000      0.0000000E+00
 -0.2600000      0.0000000E+00
 -0.2500000      0.0000000E+00
 -0.2400000      0.0000000E+00
 -0.2300000      0.0000000E+00
 -0.2200000      0.0000000E+00
 -0.2100000      0.0000000E+00
 -0.2000000      0.0000000E+00
 -0.1900000      0.0000000E+00
 -0.1800000      0.0000000E+00
 -0.1700000      0.0000000E+00
 -0.1600000      0.0000000E+00
 -0.1500000      0.0000000E+00
 -0.1400000      0.0000000E+00
 -0.1300000      0.0000000E+00
 -0.1200000      0.0000000E+00
 -0.1100000      0.0000000E+00
 -0.1000000      0.0000000E+00
 -9.0000004E-02  0.0000000E+00
 -7.9999998E-02  0.0000000E+00
 -7.0000000E-02  0.0000000E+00
 -5.9999999E-02  0.0000000E+00
 -5.0000001E-02  0.0000000E+00
 -3.9999999E-02  0.0000000E+00
 -2.9999999E-02  0.0000000E+00
 -2.0000000E-02  0.0000000E+00
 -9.9999998E-03  0.0000000E+00
 -3.4694470E-17  0.0000000E+00
  9.9999998E-03  0.0000000E+00
  2.0000000E-02  0.0000000E+00
  2.9999999E-02  0.0000000E+00
  3.9999999E-02  0.0000000E+00
  5.0000001E-02  0.0000000E+00
  5.9999999E-02  0.0000000E+00
  7.0000000E-02  0.0000000E+00
  7.9999998E-02  0.0000000E+00
  9.0000004E-02  0.0000000E+00
  0.1000000      0.0000000E+00
  0.1100000      0.0000000E+00
  0.1200000      0.0000000E+00
  0.1300000      0.0000000E+00
  0.1400000      0.0000000E+00
  0.1500000      0.0000000E+00
  0.1600000      0.0000000E+00
  0.1700000      0.0000000E+00
  0.1800000      0.0000000E+00
  0.1900000      0.0000000E+00
  0.2000000      0.0000000E+00
  0.2100000      0.0000000E+00
  0.2200000      0.0000000E+00
  0.2300000      0.0000000E+00
  0.2400000      0.0000000E+00
  0.2500000      0.0000000E+00
  0.2600000      0.0000000E+00
  0.2700000      0.0000000E+00
  0.2800000      0.0000000E+00
  0.2900000      0.0000000E+00
  0.3000000      0.0000000E+00
  0.3100000      0.0000000E+00
  0.3200000      0.0000000E+00
  0.3300000      0.0000000E+00
  0.3400000      0.0000000E+00
  0.3500000      0.0000000E+00
  0.3600000      0.0000000E+00
  0.3700000      0.0000000E+00
  0.3800000      0.0000000E+00
  0.3900000      0.0000000E+00
  0.4000000      0.0000000E+00
  0.4100000      0.0000000E+00
  0.4200000      0.0000000E+00
  0.4300000      0.0000000E+00
  0.4400000      0.0000000E+00
  0.4500000      1.7441155E-38
  0.4600000      2.3423997E-38
  0.4700000      2.8383124E-38
  0.4800000      3.1325694E-38
  0.4900000      2.3182018E-38
  0.5000000      0.0000000E+00
  0.5100000     -3.1951043E-38
  0.5200000     -8.3850797E-38
  0.5300000     -1.4137705E-37
  0.5400000     -2.0238620E-37
  0.5500000     -2.7275887E-37
  0.5600000     -3.6434143E-37
  0.5700000     -4.7475100E-37
  0.5800000     -6.0334966E-37
  0.5900000     -7.4809330E-37
  0.6000000     -9.0243783E-37
  0.6100000     -1.0531111E-36
  0.6200000     -1.1906800E-36
  0.6300000     -1.3026164E-36
  0.6400000     -1.3859218E-36
  0.6500000     -1.4540689E-36
  0.6600000     -1.4874846E-36
  0.6700000     -1.4680645E-36
  0.6800000     -1.3799721E-36
  0.6900000     -1.1831094E-36
  0.7000000     -8.7838697E-37
  0.7100000     -4.9373103E-37
  0.7200000     -4.2784490E-38
  0.7300000      4.8290368E-37
  0.7400000      1.1035602E-36
  0.7500000      1.8185148E-36
  0.7600000      2.5915367E-36
  0.7700000      3.3717047E-36
  0.7800000      4.1744295E-36
  0.7900000      5.0336571E-36
  0.8000000      5.9752045E-36
  0.8100000      6.9952712E-36
  0.8200000      8.0493576E-36
  0.8300000      9.2860660E-36
  0.8400000      1.0847084E-35
  0.8500000      1.2449012E-35
  0.8600000      1.4008703E-35
  0.8700000      1.5639117E-35
  0.8800000      1.7198505E-35
  0.8900000      1.8675457E-35
  0.9000000      2.0168124E-35
  0.9100000      2.1635565E-35
  0.9200000      2.2932863E-35
  0.9300000      2.4003481E-35
  0.9400000      2.5009446E-35
  0.9500000      2.5996700E-35
  0.9600000      2.6869938E-35
  0.9700000      2.7752724E-35
  0.9800000      2.8639209E-35
  0.9900000      2.9257655E-35
   1.000000      2.9431931E-35
   1.010000      2.8933109E-35
   1.020000      2.7694457E-35
   1.030000      2.5899567E-35
   1.040000      2.3238364E-35
   1.050000      1.9402494E-35
   1.060000      1.4541148E-35
   1.070000      8.8027028E-36
   1.080000      2.0199533E-36
   1.090000     -6.1231884E-36
   1.100000     -1.5545555E-35
   1.110000     -2.6175214E-35
   1.120000     -3.7998449E-35
   1.130000     -5.0604997E-35
   1.140000     -6.3718877E-35
   1.150000     -7.7562033E-35
   1.160000     -9.2240812E-35
   1.170000     -1.0744009E-34
   1.180000     -1.2285842E-34
   1.190000     -1.3833963E-34
   1.200000     -1.5385204E-34
   1.210000     -1.6926474E-34
   1.220000     -1.8440069E-34
   1.230000     -1.9893903E-34
   1.240000     -2.1210358E-34
   1.250000     -2.2405159E-34
   1.260000     -2.3526346E-34
   1.270000     -2.4528437E-34
   1.280000     -2.5405686E-34
   1.290000     -2.6159938E-34
   1.300000     -2.6791720E-34
   1.310000     -2.7294478E-34
   1.320000     -2.7663042E-34
   1.330000     -2.7820703E-34
   1.340000     -2.7676925E-34
   1.350000     -2.7177886E-34
   1.360000     -2.6247584E-34
   1.370000     -2.4911418E-34
   1.380000     -2.3188938E-34
   1.390000     -2.1016372E-34
   1.400000     -1.8369721E-34
   1.410000     -1.5059743E-34
   1.420000     -1.1213025E-34
   1.430000     -7.0058436E-35
   1.440000     -2.2889667E-35
   1.450000      2.9669162E-35
   1.460000      8.7439962E-35
   1.470000      1.4962809E-34
   1.480000      2.1621892E-34
   1.490000      2.8714526E-34
   1.500000      3.6146853E-34
   1.510000      4.3755376E-34
   1.520000      5.1567114E-34
   1.530000      5.9635951E-34
   1.540000      6.7923622E-34
   1.550000      7.6338256E-34
   1.560000      8.4787039E-34
   1.570000      9.3183586E-34
   1.580000      1.0109368E-33
   1.590000      1.0844521E-33
   1.600000      1.1535659E-33
   1.610000      1.2133008E-33
   1.620000      1.2621028E-33
   1.630000      1.3004533E-33
   1.640000      1.3248635E-33
   1.650000      1.3367136E-33
   1.660000      1.3374453E-33
   1.670000      1.3228929E-33
   1.680000      1.2908362E-33
   1.690000      1.2373053E-33
   1.700000      1.1606732E-33
   1.710000      1.0642717E-33
   1.720000      9.4499387E-34
   1.730000      7.9776109E-34
   1.740000      6.1984240E-34
   1.750000      4.0949889E-34
   1.760000      1.6772050E-34
   1.770000     -1.0369279E-34
   1.780000     -4.0537529E-34
   1.790000     -7.3559282E-34
   1.800000     -1.0964415E-33
   1.810000     -1.4895047E-33
   1.820000     -1.9084878E-33
   1.830000     -2.3493390E-33
   1.840000     -2.8104617E-33
   1.850000     -3.2891368E-33
   1.860000     -3.7789928E-33
   1.870000     -4.2748894E-33
   1.880000     -4.7727286E-33
   1.890000     -5.2676348E-33
   1.900000     -5.7539122E-33
   1.910000     -6.2244138E-33
   1.920000     -6.6721001E-33
   1.930000     -7.0904952E-33
   1.940000     -7.4716978E-33
   1.950000     -7.8073462E-33
   1.960000     -8.0897631E-33
   1.970000     -8.3083897E-33
   1.980000     -8.4558121E-33
   1.990000     -8.5195621E-33
   2.000000     -8.4858614E-33
   2.010000     -8.3458997E-33
   2.020000     -8.0878324E-33
   2.030000     -7.6991405E-33
   2.040000     -7.1665629E-33
   2.050000     -6.4774720E-33
   2.060000     -5.6193519E-33
   2.070000     -4.5800305E-33
   2.080000     -3.3484625E-33
   2.090000     -1.9130329E-33
   2.100000     -2.6240037E-34
   2.110000      1.6124570E-33
   2.120000      3.7186070E-33
   2.130000      6.0619924E-33
   2.140000      8.6466969E-33
   2.150000      1.1473183E-32
   2.160000      1.4539853E-32
   2.170000      1.7841146E-32
   2.180000      2.1366782E-32
   2.190000      2.5104213E-32
   2.200000      2.9037485E-32
   2.210000      3.3146322E-32
   2.220000      3.7407178E-32
   2.230000      4.1787534E-32
   2.240000      4.6255153E-32
   2.250000      5.0776325E-32
   2.260000      5.5308702E-32
   2.270000      5.9808512E-32
   2.280000      6.4228106E-32
   2.290000      6.8515757E-32
   2.300000      7.2617780E-32
   2.310000      7.6478380E-32
   2.320000      8.0037418E-32
   2.330000      8.3231859E-32
   2.340000      8.5996681E-32
   2.350000      8.8264327E-32
   2.360000      8.9964556E-32
   2.370000      9.1024599E-32
   2.380000      9.1369936E-32
   2.390000      9.0924012E-32
   2.400000      8.9607735E-32
   2.410000      8.7340682E-32
   2.420000      8.4041346E-32
   2.430000      7.9627476E-32
   2.440000      7.4016883E-32
   2.450000      6.7128380E-32
   2.460000      5.8883269E-32
   2.470000      4.9205870E-32
   2.480000      3.8025423E-32
   2.490000      2.5278139E-32
   2.500000      1.0908686E-32
   2.510000     -5.1283843E-33
   2.520000     -2.2865725E-32
   2.530000     -4.2321097E-32
   2.540000     -6.3495944E-32
   2.550000     -8.6372175E-32
   2.560000     -1.1091069E-31
   2.570000     -1.3704997E-31
   2.580000     -1.6470356E-31
   2.590000     -1.9375975E-31
   2.600000     -2.2408049E-31
   2.610000     -2.5549910E-31
   2.620000     -2.8782111E-31
   2.630000     -3.2082405E-31
   2.640000     -3.5425782E-31
   2.650000     -3.8784533E-31
   2.660000     -4.2128354E-31
   2.670000     -4.5424450E-31
   2.680000     -4.8637687E-31
   2.690000     -5.1730765E-31
   2.700000     -5.4664352E-31
   2.710000     -5.7397287E-31
   2.720000     -5.9886745E-31
   2.730000     -6.2088380E-31
   2.740000     -6.3956504E-31
   2.750000     -6.5444237E-31
   2.760000     -6.6503687E-31
   2.770000     -6.7086036E-31
   2.780000     -6.7141764E-31
   2.790000     -6.6620808E-31
   2.800000     -6.5472760E-31
   2.810000     -6.3647123E-31
   2.820000     -6.1093606E-31
   2.830000     -5.7762476E-31
   2.840000     -5.3605016E-31
   2.850000     -4.8574031E-31
   2.860000     -4.2624478E-31
   2.870000     -3.5714166E-31
   2.880000     -2.7804570E-31
   2.890000     -1.8861740E-31
   2.900000     -8.8572994E-32
   2.910000      2.2305117E-32
   2.920000      1.4415666E-31
   2.930000      2.7703205E-31
   2.940000      4.2088082E-31
   2.950000      5.7553957E-31
   2.960000      7.4072065E-31
   2.970000      9.1600219E-31
   2.980000      1.1008177E-30
   2.990000      1.2944480E-30
   3.000000      1.4960143E-30
   3.010000      1.7044728E-30
   3.020000      1.9186110E-30
   3.030000      2.1370461E-30
   3.040000      2.3582252E-30
   3.050000      2.5804273E-30
   3.060000      2.8017669E-30
   3.070000      3.0201980E-30
   3.080000      3.2335213E-30
   3.090000      3.4393927E-30
   3.100000      3.6353286E-30
   3.110000      3.8187173E-30
   3.120000      3.9868270E-30
   3.130000      4.1368144E-30
   3.140000      4.2657347E-30
   3.150000      4.3705516E-30
   3.160000      4.4481444E-30
   3.170000      4.4953191E-30
   3.180000      4.5088187E-30
   3.190000      4.4853332E-30
   3.200000      4.4215116E-30
   3.210000      4.3139770E-30
   3.220000      4.1593429E-30
   3.230000      3.9542306E-30
   3.240000      3.6952949E-30
   3.250000      3.3792491E-30
   3.260000      3.0028951E-30
   3.270000      2.5631620E-30
   3.280000      2.0571448E-30
   3.290000      1.4821495E-30
   3.300000      8.3574498E-31
   3.310000      1.1581571E-31
   3.320000     -6.7937856E-31
   3.330000     -1.5511438E-30
   3.340000     -2.5002898E-30
   3.350000     -3.5270646E-30
   3.360000     -4.6310930E-30
   3.370000     -5.8113157E-30
   3.380000     -7.0659300E-30
   3.390000     -8.3923383E-30
   3.400000     -9.7870975E-30
   3.410000     -1.1245875E-29
   3.420000     -1.2763419E-29
   3.430000     -1.4333524E-29
   3.440000     -1.5949013E-29
   3.450000     -1.7601725E-29
   3.460000     -1.9282511E-29
   3.470000     -2.0981231E-29
   3.480000     -2.2686766E-29
   3.490000     -2.4387025E-29
   3.500000     -2.6068972E-29
   3.510000     -2.7718640E-29
   3.520000     -2.9321143E-29
   3.530000     -3.0860725E-29
   3.540000     -3.2320767E-29
   3.550000     -3.3683814E-29
   3.560000     -3.4931609E-29
   3.570000     -3.6045124E-29
   3.580000     -3.7004589E-29
   3.590000     -3.7789520E-29
   3.600000     -3.8378764E-29
   3.610000     -3.8750559E-29
   3.620000     -3.8882585E-29
   3.630000     -3.8752028E-29
   3.640000     -3.8335681E-29
   3.650000     -3.7610035E-29
   3.660000     -3.6551412E-29
   3.670000     -3.5136109E-29
   3.680000     -3.3340556E-29
   3.690000     -3.1141520E-29
   3.700000     -2.8516312E-29
   3.710000     -2.5443015E-29
   3.720000     -2.1900761E-29
   3.730000     -1.7869985E-29
   3.740000     -1.3332730E-29
   3.750000     -8.2729532E-30
   3.760000     -2.6768147E-30
   3.770000      3.4669940E-30
   3.780000      1.0166940E-29
   3.790000      1.7428346E-29
   3.800000      2.5253088E-29
   3.810000      3.3639334E-29
   3.820000      4.2581273E-29
   3.830000      5.2068864E-29
   3.840000      6.2087636E-29
   3.850000      7.2618458E-29
   3.860000      8.3637432E-29
   3.870000      9.5115649E-29
   3.880000      1.0701912E-28
   3.890000      1.1930865E-28
   3.900000      1.3193969E-28
   3.910000      1.4486234E-28
   3.920000      1.5802110E-28
   3.930000      1.7135495E-28
   3.940000      1.8479719E-28
   3.950000      1.9827535E-28
   3.960000      2.1171115E-28
   3.970000      2.2502041E-28
   3.980000      2.3811293E-28
   3.990000      2.5089251E-28
   4.000000      2.6325690E-28
   4.010000      2.7509774E-28
   4.020000      2.8630058E-28
   4.030000      2.9674497E-28
   4.040000      3.0630457E-28
   4.050000      3.1484732E-28
   4.060000      3.2223576E-28
   4.070000      3.2832724E-28
   4.080000      3.3297456E-28
   4.090000      3.3602629E-28
   4.100000      3.3732754E-28
   4.110000      3.3672064E-28
   4.120000      3.3404598E-28
   4.130000      3.2914299E-28
   4.140000      3.2185113E-28
   4.150000      3.1201100E-28
   4.160000      2.9946559E-28
   4.170000      2.8406133E-28
   4.180000      2.6564961E-28
   4.190000      2.4408786E-28
   4.200000      2.1924108E-28
   4.210000      1.9098304E-28
   4.220000      1.5919754E-28
   4.230000      1.2377984E-28
   4.240000      8.4637892E-29
   4.250000      4.1693573E-29
   4.260000     -5.1161456E-30
   4.270000     -5.5837867E-29
   4.280000     -1.1050069E-28
   4.290000     -1.6911505E-28
   4.300000     -2.3167146E-28
   4.310000     -2.9813942E-28
   4.320000     -3.6846615E-28
   4.330000     -4.4257538E-28
   4.340000     -5.2036605E-28
   4.350000     -6.0171088E-28
   4.360000     -6.8645512E-28
   4.370000     -7.7441494E-28
   4.380000     -8.6537618E-28
   4.390000     -9.5909299E-28
   4.400000     -1.0552856E-27
   4.410000     -1.1536395E-27
   4.420000     -1.2538039E-27
   4.430000     -1.3553901E-27
   4.440000     -1.4579707E-27
   4.450000     -1.5610775E-27
   4.460000     -1.6642024E-27
   4.470000     -1.7667952E-27
   4.480000     -1.8682632E-27
   4.490000     -1.9679726E-27
   4.500000     -2.0652477E-27
   4.510000     -2.1593711E-27
   4.520000     -2.2495861E-27
   4.530000     -2.3350965E-27
   4.540000     -2.4150692E-27
   4.550000     -2.4886362E-27
   4.560000     -2.5548969E-27
   4.570000     -2.6129205E-27
   4.580000     -2.6617498E-27
   4.590000     -2.7004034E-27
   4.600000     -2.7278793E-27
   4.610000     -2.7431592E-27
   4.620000     -2.7452117E-27
   4.630000     -2.7329959E-27
   4.640000     -2.7054661E-27
   4.650000     -2.6615757E-27
   4.660000     -2.6002814E-27
   4.670000     -2.5205471E-27
   4.680000     -2.4213496E-27
   4.690000     -2.3016825E-27
   4.700000     -2.1605614E-27
   4.710000     -1.9970287E-27
   4.720000     -1.8101615E-27
   4.730000     -1.5990752E-27
   4.740000     -1.3629305E-27
   4.750000     -1.1009409E-27
   4.760000     -8.1238065E-28
   4.770000     -4.9659232E-28
   4.780000     -1.5299561E-28
   4.790000      2.1890423E-28
   4.800000      6.1950618E-28
   4.810000      1.0491029E-27
   4.820000      1.5078719E-27
   4.830000      1.9958633E-27
   4.840000      2.5129902E-27
   4.850000      3.0590162E-27
   4.860000      3.6335461E-27
   4.870000      4.2360147E-27
   4.880000      4.8656752E-27
   4.890000      5.5215915E-27
   4.900000      6.2026276E-27
   4.910000      6.9074386E-27
   4.920000      7.6344626E-27
   4.930000      8.3819121E-27
   4.940000      9.1477690E-27
   4.950000      9.9297782E-27
   4.960000      1.0725443E-26
   4.970000      1.1532019E-26
   4.980000      1.2346511E-26
   4.990000      1.3165666E-26
   5.000000      1.3985983E-26
   5.010000      1.4803693E-26
   5.020000      1.5614773E-26
   5.030000      1.6414932E-26
   5.040000      1.7199621E-26
   5.050000      1.7964028E-26
   5.060000      1.8703075E-26
   5.070000      1.9411429E-26
   5.080000      2.0083490E-26
   5.090000      2.0713407E-26
   5.100000      2.1295071E-26
   5.110000      2.1822127E-26
   5.120000      2.2287977E-26
   5.130000      2.2685791E-26
   5.140000      2.3008510E-26
   5.150000      2.3248876E-26
   5.160000      2.3399425E-26
   5.170000      2.3452522E-26
   5.180000      2.3400374E-26
   5.190000      2.3235051E-26
   5.200000      2.2948520E-26
   5.210000      2.2532669E-26
   5.220000      2.1979338E-26
   5.230000      2.1280360E-26
   5.240000      2.0427595E-26
   5.250000      1.9412976E-26
   5.260000      1.8228543E-26
   5.270000      1.6866499E-26
   5.280000      1.5319249E-26
   5.290000      1.3579452E-26
   5.300000      1.1640069E-26
   5.310000      9.4944171E-27
   5.320000      7.1362268E-27
   5.330000      4.5596869E-27
   5.340000      1.7595080E-27
   5.350000     -1.2690225E-27
   5.360000     -4.5299895E-27
   5.370000     -8.0267814E-27
   5.380000     -1.1762036E-26
   5.390000     -1.5737584E-26
   5.400000     -1.9954383E-26
   5.410000     -2.4412442E-26
   5.420000     -2.9110764E-26
   5.430000     -3.4047283E-26
   5.440000     -3.9218775E-26
   5.450000     -4.4620805E-26
   5.460000     -5.0247639E-26
   5.470000     -5.6092177E-26
   5.480000     -6.2145870E-26
   5.490000     -6.8398622E-26
   5.500000     -7.4838760E-26
   5.510000     -8.1452890E-26
   5.520000     -8.8225889E-26
   5.530000     -9.5140761E-26
   5.540000     -1.0217861E-25
   5.550000     -1.0931856E-25
   5.560000     -1.1653766E-25
   5.570000     -1.2381089E-25
   5.580000     -1.3111105E-25
   5.590000     -1.3840869E-25
   5.600000     -1.4567218E-25
   5.610000     -1.5286754E-25
   5.620000     -1.5995853E-25
   5.630000     -1.6690659E-25
   5.640000     -1.7367080E-25
   5.650000     -1.8020798E-25
   5.660000     -1.8647260E-25
   5.670000     -1.9241691E-25
   5.680000     -1.9799087E-25
   5.690000     -2.0314230E-25
   5.700000     -2.0781685E-25
   5.710000     -2.1195810E-25
   5.720000     -2.1550768E-25
   5.730000     -2.1840526E-25
   5.740000     -2.2058878E-25
   5.750000     -2.2199443E-25
   5.760000     -2.2255687E-25
   5.770000     -2.2220930E-25
   5.780000     -2.2088372E-25
   5.790000     -2.1851095E-25
   5.800000     -2.1502095E-25
   5.810000     -2.1034303E-25
   5.820000     -2.0440593E-25
   5.830000     -1.9713823E-25
   5.840000     -1.8846851E-25
   5.850000     -1.7832575E-25
   5.860000     -1.6663957E-25
   5.870000     -1.5334062E-25
   5.880000     -1.3836093E-25
   5.890000     -1.2163430E-25
   5.900000     -1.0309677E-25
   5.910000     -8.2687001E-26
   5.920000     -6.0346775E-26
   5.930000     -3.6021524E-26
   5.940000     -9.6608228E-27
   5.950000      1.8781130E-26
   5.960000      4.9344874E-26
   5.970000      8.2065175E-26
   5.980000      1.1697041E-25
   5.990000      1.5408196E-25
   6.000000      1.9341369E-25
   6.010000      2.3497122E-25
   6.020000      2.7875137E-25
   6.030000      3.2474152E-25
   6.040000      3.7291893E-25
   6.050000      4.2325015E-25
   6.060000      4.7569037E-25
   6.070000      5.3018286E-25
   6.080000      5.8665811E-25
   6.090000      6.4503337E-25
   6.100000      7.0521207E-25
   6.110000      7.6708302E-25
   6.120000      8.3051976E-25
   6.130000      8.9538020E-25
   6.140000      9.6150578E-25
   6.150000      1.0287210E-24
   6.160000      1.0968329E-24
   6.170000      1.1656303E-24
   6.180000      1.2348836E-24
   6.190000      1.3043438E-24
   6.200000      1.3737430E-24
   6.210000      1.4427928E-24
   6.220000      1.5111850E-24
   6.230000      1.5785907E-24
   6.240000      1.6446605E-24
   6.250000      1.7090240E-24
   6.260000      1.7712901E-24
   6.270000      1.8310467E-24
   6.280000      1.8878617E-24
   6.290000      1.9412820E-24
   6.300000      1.9908347E-24
   6.310000      2.0360275E-24
   6.320000      2.0763492E-24
   6.330000      2.1112703E-24
   6.340000      2.1402443E-24
   6.350000      2.1627083E-24
   6.360000      2.1780846E-24
   6.370000      2.1857805E-24
   6.380000      2.1851920E-24
   6.390000      2.1757040E-24
   6.400000      2.1566923E-24
   6.410000      2.1275249E-24
   6.420000      2.0875654E-24
   6.430000      2.0361733E-24
   6.440000      1.9727078E-24
   6.450000      1.8965303E-24
   6.460000      1.8070060E-24
   6.470000      1.7035075E-24
   6.480000      1.5854179E-24
   6.490000      1.4521334E-24
   6.500000      1.3030673E-24
   6.510000      1.1376532E-24
   6.520000      9.5534862E-25
   6.530000      7.5563961E-25
   6.540000      5.3804401E-25
   6.550000      3.0211610E-25
   6.560000      4.7451198E-26
   6.570000     -2.2630977E-25
   6.580000     -5.1947556E-25
   6.590000     -8.3229924E-25
   6.600000     -1.1649739E-24
   6.610000     -1.5176278E-24
   6.620000     -1.8903176E-24
   6.630000     -2.2830238E-24
   6.640000     -2.6956444E-24
   6.650000     -3.1279919E-24
   6.660000     -3.5797845E-24
   6.670000     -4.0506438E-24
   6.680000     -4.5400854E-24
   6.690000     -5.0475178E-24
   6.700000     -5.5722346E-24
   6.710000     -6.1134085E-24
   6.720000     -6.6700880E-24
   6.730000     -7.2411909E-24
   6.740000     -7.8255018E-24
   6.750000     -8.4216645E-24
   6.760000     -9.0281794E-24
   6.770000     -9.6434002E-24
   6.780000     -1.0265528E-23
   6.790000     -1.0892609E-23
   6.800000     -1.1522530E-23
   6.810000     -1.2153019E-23
   6.820000     -1.2781643E-23
   6.830000     -1.3405798E-23
   6.840000     -1.4022722E-23
   6.850000     -1.4629481E-23
   6.860000     -1.5222972E-23
   6.870000     -1.5799933E-23
   6.880000     -1.6356930E-23
   6.890000     -1.6890369E-23
   6.900000     -1.7396494E-23
   6.910000     -1.7871396E-23
   6.920000     -1.8311008E-23
   6.930000     -1.8711118E-23
   6.940000     -1.9067374E-23
   6.950000     -1.9375292E-23
   6.960000     -1.9630259E-23
   6.970000     -1.9827552E-23
   6.980000     -1.9962338E-23
   6.990000     -2.0029691E-23
   7.000000     -2.0024612E-23
   7.010000     -1.9942031E-23
   7.020000     -1.9776828E-23
   7.030000     -1.9523851E-23
   7.040000     -1.9177934E-23
   7.050000     -1.8733916E-23
   7.060000     -1.8186656E-23