  -2.600000      0.0000000E+00
  -2.590000      0.0000000E+00
  -2.580000      0.0000000E+00
  -2.570000      0.0000000E+00
  -2.560000      0.0000000E+00
  -2.550000      0.0000000E+00
  -2.540000      0.0000000E+00
  -2.530000      0.0000000E+00
  -2.520000      0.0000000E+00
  -2.510000      0.0000000E+00
  -2.500000      0.0000000E+00
  -2.490000      0.0000000E+00
  -2.480000      0.0000000E+00
  -2.470000      0.0000000E+00
  -2.460000      0.0000000E+00
  -2.450000      0.0000000E+00
  -2.440000      0.0000000E+00
  -2.430000      0.0000000E+00
  -2.420000      0.0000000E+00
  -2.410000      0.0000000E+00
  -2.400000      0.0000000E+00
  -2.390000      0.0000000E+00
  -2.380000      0.0000000E+00
  -2.370000      0.0000000E+00
  -2.360000      0.0000000E+00
  -2.350000      0.0000000E+00
  -2.340000      0.0000000E+00
  -2.330000      0.0000000E+00
  -2.320000      0.0000000E+00
  -2.310000      0.0000000E+00
  -2.300000      0.0000000E+00
  -2.290000      0.0000000E+00
  -2.280000      0.0000000E+00
  -2.270000      0.0000000E+00
  -2.260000      0.0000000E+00
  -2.250000      0.0000000E+00
  -2.240000      0.0000000E+00
  -2.230000      0.0000000E+00
  -2.220000      0.0000000E+00
  -2.210000      0.0000000E+00
  -2.200000      0.0000000E+00
  -2.190000      0.0000000E+00
  -2.180000      0.0000000E+00
  -2.170000      0.0000000E+00
  -2.160000      0.0000000E+00
  -2.150000      0.0000000E+00
  -2.140000      0.0000000E+00
  -2.130000      0.0000000E+00
  -2.120000      0.0000000E+00
  -2.110000      0.0000000E+00
  -2.100000      0.0000000E+00
  -2.090000      0.0000000E+00
  -2.080000      0.0000000E+00
  -2.070000      0.0000000E+00
  -2.060000      0.0000000E+00
  -2.050000      0.0000000E+00
  -2.040000      0.0000000E+00
  -2.030000      0.0000000E+00
  -2.020000      0.0000000E+00
  -2.010000      0.0000000E+00
  -2.000000      0.0000000E+00
  -1.990000      0.0000000E+00
  -1.980000      0.0000000E+00
  -1.970000      0.0000000E+00
  -1.960000      0.0000000E+00
  -1.950000      0.0000000E+00
  -1.940000      0.0000000E+00
  -1.930000      0.0000000E+00
  -1.920000      0.0000000E+00
  -1.910000      0.0000000E+00
  -1.900000      0.0000000E+00
  -1.890000      0.0000000E+00
  -1.880000      0.0000000E+00
  -1.870000      0.0000000E+00
  -1.860000      0.0000000E+00
  -1.850000      0.0000000E+00
  -1.840000      0.0000000E+00
  -1.830000      0.0000000E+00
  -1.820000      0.0000000E+00
  -1.810000      0.0000000E+00
  -1.800000      0.0000000E+00
  -1.790000      0.0000000E+00
  -1.780000      0.0000000E+00
  -1.770000      0.0000000E+00
  -1.760000      0.0000000E+00
  -1.750000      0.0000000E+00
  -1.740000      0.0000000E+00
  -1.730000      0.0000000E+00
  -1.720000      0.0000000E+00
  -1.710000      0.0000000E+00
  -1.700000      0.0000000E+00
  -1.690000      0.0000000E+00
  -1.680000      0.0000000E+00
  -1.670000      0.0000000E+00
  -1.660000      0.0000000E+00
  -1.650000      0.0000000E+00
  -1.640000      0.0000000E+00
  -1.630000      0.0000000E+00
  -1.620000      0.0000000E+00
  -1.610000      0.0000000E+00
  -1.600000      0.0000000E+00
  -1.590000      0.0000000E+00
  -1.580000      0.0000000E+00
  -1.570000      0.0000000E+00
  -1.560000      0.0000000E+00
  -1.550000      0.0000000E+00
  -1.540000      0.0000000E+00
  -1.530000      0.0000000E+00
  -1.520000      0.0000000E+00
  -1.510000      0.0000000E+00
  -1.500000      0.0000000E+00
  -1.490000      0.0000000E+00
  -1.480000      0.0000000E+00
  -1.470000      0.0000000E+00
  -1.460000      0.0000000E+00
  -1.450000      0.0000000E+00
  -1.440000      0.0000000E+00
  -1.430000      0.0000000E+00
  -1.420000      0.0000000E+00
  -1.410000      0.0000000E+00
  -1.400000      0.0000000E+00
  -1.390000      0.0000000E+00
  -1.380000      0.0000000E+00
  -1.370000      0.0000000E+00
  -1.360000      0.0000000E+00
  -1.350000      0.0000000E+00
  -1.340000      0.0000000E+00
  -1.330000      0.0000000E+00
  -1.320000      0.0000000E+00
  -1.310000      0.0000000E+00
  -1.300000      0.0000000E+00
  -1.290000      0.0000000E+00
  -1.280000      0.0000000E+00
  -1.270000      0.0000000E+00
  -1.260000      0.0000000E+00
  -1.250000      0.0000000E+00
  -1.240000      0.0000000E+00
  -1.230000      0.0000000E+00
  -1.220000      0.0000000E+00
  -1.210000      0.0000000E+00
  -1.200000      0.0000000E+00
  -1.190000      0.0000000E+00
  -1.180000      0.0000000E+00
  -1.170000      0.0000000E+00
  -1.160000      0.0000000E+00
  -1.150000      0.0000000E+00
  -1.140000      0.0000000E+00
  -1.130000      0.0000000E+00
  -1.120000      0.0000000E+00
  -1.110000      0.0000000E+00
  -1.100000      0.0000000E+00
  -1.090000      0.0000000E+00
  -1.080000      0.0000000E+00
  -1.070000      0.0000000E+00
  -1.060000      0.0000000E+00
  -1.050000      0.0000000E+00
  -1.040000      0.0000000E+00
  -1.030000      0.0000000E+00
  -1.020000      0.0000000E+00
  -1.010000      0.0000000E+00
  -1.000000      0.0000000E+00
 -0.9900000      0.0000000E+00
 -0.9800000      0.0000000E+00
 -0.9700000      0.0000000E+00
 -0.9600000      0.0000000E+00
 -0.9500000      0.0000000E+00
 -0.9400000      0.0000000E+00
 -0.9300000      0.0000000E+00
 -0.9200000      0.0000000E+00
 -0.9100000      0.0000000E+00
 -0.9000000      0.0000000E+00
 -0.8900000      0.0000000E+00
 -0.8800000      0.0000000E+00
 -0.8700000      0.0000000E+00
 -0.8600000      0.0000000E+00
 -0.8500000      0.0000000E+00
 -0.8400000      0.0000000E+00
 -0.8300000      0.0000000E+00
 -0.8200000      0.0000000E+00
 -0.8100000      0.0000000E+00
 -0.8000000      0.0000000E+00
 -0.7900000      0.0000000E+00
 -0.7800000      0.0000000E+00
 -0.7700000      0.0000000E+00
 -0.7600000      0.0000000E+00
 -0.7500000      0.0000000E+00
 -0.7400000      0.0000000E+00
 -0.7300000      0.0000000E+00
 -0.7200000      0.0000000E+00
 -0.7100000      0.0000000E+00
 -0.7000000      0.0000000E+00
 -0.6900000      0.0000000E+00
 -0.6800000      0.0000000E+00
 -0.6700000      0.0000000E+00
 -0.6600000      0.0000000E+00
 -0.6500000      0.0000000E+00
 -0.6400000      0.0000000E+00
 -0.6300000      0.0000000E+00
 -0.6200000      0.0000000E+00
 -0.6100000      0.0000000E+00
 -0.6000000      0.0000000E+00
 -0.5900000      0.0000000E+00
 -0.5800000      0.0000000E+00
 -0.5700000      0.0000000E+00
 -0.5600000      0.0000000E+00
 -0.5500000      0.0000000E+00
 -0.5400000      0.0000000E+00
 -0.5300000      0.0000000E+00
 -0.5200000      0.0000000E+00
 -0.5100000      0.0000000E+00
 -0.5000000      0.0000000E+00
 -0.4900000      0.0000000E+00
 -0.4800000      0.0000000E+00
 -0.4700000      0.0000000E+00
 -0.4600000      0.0000000E+00
 -0.4500000      0.0000000E+00
 -0.4400000      0.0000000E+00
 -0.4300000      0.0000000E+00
 -0.4200000      0.0000000E+00
 -0.4100000      0.0000000E+00
 -0.4000000      0.0000000E+00
 -0.3900000      0.0000000E+00
 -0.3800000      0.0000000E+00
 -0.3700000      0.0000000E+00
 -0.3600000      0.0000000E+00
 -0.3500000      0.0000000E+00
 -0.3400000      0.0000000E+00
 -0.3300000      0.0000000E+00
 -0.3200000      0.0000000E+00
 -0.3100000      0.0000000E+00
 -0.3000000      0.0000000E+00
 -0.2900000      0.0000000E+00
 -0.2800000      0.0000000E+00
 -0.2700000      0.0000000E+00
 -0.2600000      0.0000000E+00
 -0.2500000      0.0000000E+00
 -0.2400000      0.0000000E+00
 -0.2300000      0.0000000E+00
 -0.2200000      0.0000000E+00
 -0.2100000      0.0000000E+00
 -0.2000000      0.0000000E+00
 -0.1900000      0.0000000E+00
 -0.1800000      0.0000000E+00
 -0.1700000      0.0000000E+00
 -0.1600000      0.0000000E+00
 -0.1500000      0.0000000E+00
 -0.1400000      0.0000000E+00
 -0.1300000      0.0000000E+00
 -0.1200000      0.0000000E+00
 -0.1100000      0.0000000E+00
 -0.1000000      0.0000000E+00
 -9.0000004E-02  0.0000000E+00
 -7.9999998E-02  0.0000000E+00
 -7.0000000E-02  0.0000000E+00
 -5.9999999E-02  0.0000000E+00
 -5.0000001E-02  0.0000000E+00
 -3.9999999E-02  0.0000000E+00
 -2.9999999E-02  0.0000000E+00
 -2.0000000E-02  0.0000000E+00
 -9.9999998E-03  0.0000000E+00
 -3.4694470E-17  0.0000000E+00
  9.9999998E-03  0.0000000E+00
  2.0000000E-02  0.0000000E+00
  2.9999999E-02  0.0000000E+00
  3.9999999E-02  0.0000000E+00
  5.0000001E-02  0.0000000E+00
  5.9999999E-02  0.0000000E+00
  7.0000000E-02  0.0000000E+00
  7.9999998E-02  0.0000000E+00
  9.0000004E-02  0.0000000E+00
  0.1000000      0.0000000E+00
  0.1100000      0.0000000E+00
  0.1200000      0.0000000E+00
  0.1300000      0.0000000E+00
  0.1400000      0.0000000E+00
  0.1500000      0.0000000E+00
  0.1600000      0.0000000E+00
  0.1700000      0.0000000E+00
  0.1800000      0.0000000E+00
  0.1900000      0.0000000E+00
  0.2000000      0.0000000E+00
  0.2100000      0.0000000E+00
  0.2200000      0.0000000E+00
  0.2300000      0.0000000E+00
  0.2400000      0.0000000E+00
  0.2500000      0.0000000E+00
  0.2600000      0.0000000E+00
  0.2700000      0.0000000E+00
  0.2800000      0.0000000E+00
  0.2900000      0.0000000E+00
  0.3000000      0.0000000E+00
  0.3100000      0.0000000E+00
  0.3200000      0.0000000E+00
  0.3300000      0.0000000E+00
  0.3400000      0.0000000E+00
  0.3500000      0.0000000E+00
  0.3600000      0.0000000E+00
  0.3700000      0.0000000E+00
  0.3800000      0.0000000E+00
  0.3900000      0.0000000E+00
  0.4000000      0.0000000E+00
  0.4100000      0.0000000E+00
  0.4200000      0.0000000E+00
  0.4300000      1.2381464E-38
  0.4400000      1.2604668E-38
  0.4500000      0.0000000E+00
  0.4600000      0.0000000E+00
  0.4700000      0.0000000E+00
  0.4800000      0.0000000E+00
  0.4900000      0.0000000E+00
  0.5000000      0.0000000E+00
  0.5100000      0.0000000E+00
  0.5200000      0.0000000E+00
  0.5300000     -1.3724557E-38
  0.5400000     -2.5490199E-38
  0.5500000     -3.9331317E-38
  0.5600000     -5.3866922E-38
  0.5700000     -6.8573661E-38
  0.5800000     -8.3032175E-38
  0.5900000     -9.8518232E-38
  0.6000000     -1.1496984E-37
  0.6100000     -1.2948516E-37
  0.6200000     -1.3813048E-37
  0.6300000     -1.4012312E-37
  0.6400000     -1.3655368E-37
  0.6500000     -1.2006971E-37
  0.6600000     -8.8394782E-38
  0.6700000     -4.5482401E-38
  0.6800000      0.0000000E+00
  0.6900000      8.1260502E-38
  0.7000000      1.6119533E-37
  0.7100000      2.5007328E-37
  0.7200000      3.5095522E-37
  0.7300000      4.6223011E-37
  0.7400000      5.8704644E-37
  0.7500000      7.1819757E-37
  0.7600000      8.4043766E-37
  0.7700000      9.4632918E-37
  0.7800000      1.0308916E-36
  0.7900000      1.0918976E-36
  0.8000000      1.1139782E-36
  0.8100000      1.0658873E-36
  0.8200000      9.4606166E-37
  0.8300000      7.7048340E-37
  0.8400000      5.4344484E-37
  0.8500000      2.6753045E-37
  0.8600000     -2.1303063E-38
  0.8700000     -3.2452922E-37
  0.8800000     -6.8133943E-37
  0.8900000     -1.0683868E-36
  0.9000000     -1.4858737E-36
  0.9100000     -2.0081903E-36
  0.9200000     -2.6672465E-36
  0.9300000     -3.4080856E-36
  0.9400000     -4.1313780E-36
  0.9500000     -4.7989058E-36
  0.9600000     -5.3935977E-36
  0.9700000     -5.7384751E-36
  0.9800000     -5.8133699E-36
  0.9900000     -5.7905053E-36
   1.000000     -5.7061537E-36
   1.010000     -5.4960208E-36
   1.020000     -5.0813742E-36
   1.030000     -4.5754622E-36
   1.040000     -3.9085793E-36
   1.050000     -2.9727023E-36
   1.060000     -1.8642984E-36
   1.070000     -5.4875112E-37
   1.080000      1.0276492E-36
   1.090000      2.8486514E-36
   1.100000      4.7906596E-36
   1.110000      6.8274009E-36
   1.120000      8.8562630E-36
   1.130000      1.0752952E-35
   1.140000      1.2720433E-35
   1.150000      1.4877723E-35
   1.160000      1.7194742E-35
   1.170000      1.9529091E-35
   1.180000      2.1814541E-35
   1.190000      2.3993638E-35
   1.200000      2.5934100E-35
   1.210000      2.7652529E-35
   1.220000      2.9051404E-35
   1.230000      2.9916475E-35
   1.240000      3.0176906E-35
   1.250000      3.0129863E-35
   1.260000      2.9503109E-35
   1.270000      2.7588367E-35
   1.280000      2.4360927E-35
   1.290000      1.9203784E-35
   1.300000      1.2082300E-35
   1.310000      4.0762731E-36
   1.320000     -5.0912336E-36
   1.330000     -1.5821434E-35
   1.340000     -2.7993775E-35
   1.350000     -4.1190255E-35
   1.360000     -5.4527630E-35
   1.370000     -6.8591404E-35
   1.380000     -8.3451093E-35
   1.390000     -9.7985880E-35
   1.400000     -1.1156470E-34
   1.410000     -1.2415548E-34
   1.420000     -1.3563706E-34
   1.430000     -1.4695794E-34
   1.440000     -1.5826672E-34
   1.450000     -1.6738269E-34
   1.460000     -1.7052461E-34
   1.470000     -1.6569042E-34
   1.480000     -1.5749216E-34
   1.490000     -1.4315321E-34
   1.500000     -1.2240381E-34
   1.510000     -9.8672431E-35
   1.520000     -7.0957758E-35
   1.530000     -3.8498465E-35
   1.540000     -2.2165536E-36
   1.550000      3.2020885E-35
   1.560000      6.6326132E-35
   1.570000      9.9626808E-35
   1.580000      1.3006767E-34
   1.590000      1.6209286E-34
   1.600000      1.9606885E-34
   1.610000      2.3284532E-34
   1.620000      2.7002733E-34
   1.630000      3.0776653E-34
   1.640000      3.4602706E-34
   1.650000      3.8096179E-34
   1.660000      4.1554152E-34
   1.670000      4.5188767E-34
   1.680000      4.8638356E-34
   1.690000      5.2116061E-34
   1.700000      5.5659680E-34
   1.710000      5.8895210E-34
   1.720000      6.1704986E-34
   1.730000      6.4371577E-34
   1.740000      6.7147259E-34
   1.750000      6.9372502E-34
   1.760000      7.0943118E-34
   1.770000      7.1841752E-34
   1.780000      7.1740260E-34
   1.790000      7.0463067E-34
   1.800000      6.7955797E-34
   1.810000      6.4280650E-34
   1.820000      5.9005082E-34
   1.830000      5.1714923E-34
   1.840000      4.2722451E-34
   1.850000      3.1822248E-34
   1.860000      1.8585819E-34
   1.870000      3.1680767E-35
   1.880000     -1.4427787E-34
   1.890000     -3.4224878E-34
   1.900000     -5.6006869E-34
   1.910000     -7.9918371E-34
   1.920000     -1.0607143E-33
   1.930000     -1.3407873E-33
   1.940000     -1.6373206E-33
   1.950000     -1.9461657E-33
   1.960000     -2.2669295E-33
   1.970000     -2.5963586E-33
   1.980000     -2.9296983E-33
   1.990000     -3.2650583E-33
   2.000000     -3.5967868E-33
   2.010000     -3.9196720E-33
   2.020000     -4.2307632E-33
   2.030000     -4.5233845E-33
   2.040000     -4.7908058E-33
   2.050000     -5.0297736E-33
   2.060000     -5.2340065E-33
   2.070000     -5.3982414E-33
   2.080000     -5.5182781E-33
   2.090000     -5.5888052E-33
   2.100000     -5.6041396E-33
   2.110000     -5.5580583E-33
   2.120000     -5.4446029E-33
   2.130000     -5.2591474E-33
   2.140000     -4.9956251E-33
   2.150000     -4.6492102E-33
   2.160000     -4.2157735E-33
   2.170000     -3.6900968E-33
   2.180000     -3.0681903E-33
   2.190000     -2.3464678E-33
   2.200000     -1.5214548E-33
   2.210000     -5.9072705E-34
   2.220000      4.4718409E-34
   2.230000      1.5930391E-33
   2.240000      2.8461949E-33
   2.250000      4.2053755E-33
   2.260000      5.6680578E-33
   2.270000      7.2299507E-33
   2.280000      8.8856911E-33
   2.290000      1.0628032E-32
   2.300000      1.2448059E-32
   2.310000      1.4335741E-32
   2.320000      1.6277438E-32
   2.330000      1.8260238E-32
   2.340000      2.0269857E-32
   2.350000      2.2286966E-32
   2.360000      2.4291544E-32
   2.370000      2.6262063E-32
   2.380000      2.8175215E-32
   2.390000      3.0005801E-32
   2.400000      3.1726901E-32
   2.410000      3.3310260E-32
   2.420000      3.4726389E-32
   2.430000      3.5944731E-32
   2.440000      3.6933780E-32
   2.450000      3.7661640E-32
   2.460000      3.8095921E-32
   2.470000      3.8204425E-32
   2.480000      3.7955331E-32
   2.490000      3.7317017E-32
   2.500000      3.6258961E-32
   2.510000      3.4751942E-32
   2.520000      3.2768410E-32
   2.530000      3.0282748E-32
   2.540000      2.7271713E-32
   2.550000      2.3714918E-32
   2.560000      1.9595169E-32
   2.570000      1.4898834E-32
   2.580000      9.6164217E-33
   2.590000      3.7427123E-33
   2.600000     -2.7228299E-33
   2.610000     -9.7751487E-33
   2.620000     -1.7403447E-32
   2.630000     -2.5591070E-32
   2.640000     -3.4314928E-32
   2.650000     -4.3545233E-32
   2.660000     -5.3245192E-32
   2.670000     -6.3370748E-32
   2.680000     -7.3870392E-32
   2.690000     -8.4685346E-32
   2.700000     -9.5748734E-32
   2.710000     -1.0698587E-31
   2.720000     -1.1831481E-31
   2.730000     -1.2964580E-31
   2.740000     -1.4088166E-31
   2.750000     -1.5191797E-31
   2.760000     -1.6264337E-31
   2.770000     -1.7294003E-31
   2.780000     -1.8268405E-31
   2.790000     -1.9174596E-31
   2.800000     -1.9999146E-31
   2.810000     -2.0728218E-31
   2.820000     -2.1347647E-31
   2.830000     -2.1843034E-31
   2.840000     -2.2199843E-31
   2.850000     -2.2403523E-31
   2.860000     -2.2439625E-31
   2.870000     -2.2293909E-31
   2.880000     -2.1952500E-31
   2.890000     -2.1402016E-31
   2.900000     -2.0629714E-31
   2.910000     -1.9623640E-31
   2.920000     -1.8372776E-31
   2.930000     -1.6867199E-31
   2.940000     -1.5098242E-31
   2.950000     -1.3058650E-31
   2.960000     -1.0742737E-31
   2.970000     -8.1465397E-32
   2.980000     -5.2679832E-32
   2.990000     -2.1070201E-32
   3.000000      1.3342152E-32
   3.010000      5.0512614E-32
   3.020000      9.0372094E-32
   3.030000      1.3282572E-31
   3.040000      1.7775181E-31
   3.050000      2.2500079E-31
   3.060000      2.7439440E-31
   3.070000      3.2572504E-31
   3.080000      3.7875531E-31
   3.090000      4.3321763E-31
   3.100000      4.8881428E-31
   3.110000      5.4521732E-31
   3.120000      6.0206907E-31
   3.130000      6.5898256E-31
   3.140000      7.1554245E-31
   3.150000      7.7130603E-31
   3.160000      8.2580434E-31
   3.170000      8.7854398E-31
   3.180000      9.2900870E-31
   3.190000      9.7666164E-31
   3.200000      1.0209470E-30
   3.210000      1.0612938E-30
   3.220000      1.0971171E-30
   3.230000      1.1278224E-30
   3.240000      1.1528083E-30
   3.250000      1.1714696E-30
   3.260000      1.1832025E-30
   3.270000      1.1874066E-30
   3.280000      1.1834908E-30
   3.290000      1.1708767E-30
   3.300000      1.1490036E-30
   3.310000      1.1173329E-30
   3.320000      1.0753529E-30
   3.330000      1.0225843E-30
   3.340000      9.5858489E-31
   3.350000      8.8295490E-31
   3.360000      7.9534202E-31
   3.370000      6.9544681E-31
   3.380000      5.8302789E-31
   3.390000      4.5790710E-31
   3.400000      3.1997471E-31
   3.410000      1.6919431E-31
   3.420000      5.6077920E-33
   3.430000     -1.7066007E-31
   3.440000     -3.5939722E-31
   3.450000     -5.6030023E-31
   3.460000     -7.7296973E-31
   3.470000     -9.9690779E-31
   3.480000     -1.2315146E-30
   3.490000     -1.4760857E-30
   3.500000     -1.7298097E-30
   3.510000     -1.9917668E-30
   3.520000     -2.2609272E-30
   3.530000     -2.5361509E-30
   3.540000     -2.8161879E-30
   3.550000     -3.0996776E-30
   3.560000     -3.3851506E-30
   3.570000     -3.6710312E-30
   3.580000     -3.9556378E-30
   3.590000     -4.2371888E-30
   3.600000     -4.5138031E-30
   3.610000     -4.7835063E-30
   3.620000     -5.0442347E-30
   3.630000     -5.2938413E-30
   3.640000     -5.5301009E-30
   3.650000     -5.7507192E-30
   3.660000     -5.9533365E-30
   3.670000     -6.1355392E-30
   3.680000     -6.2948659E-30
   3.690000     -6.4288189E-30
   3.700000     -6.5348721E-30
   3.710000     -6.6104814E-30
   3.720000     -6.6530979E-30
   3.730000     -6.6601772E-30
   3.740000     -6.6291931E-30
   3.750000     -6.5576485E-30
   3.760000     -6.4430918E-30
   3.770000     -6.2831271E-30
   3.780000     -6.0754306E-30
   3.790000     -5.8177660E-30
   3.800000     -5.5079975E-30
   3.810000     -5.1441055E-30
   3.820000     -4.7242038E-30
   3.830000     -4.2465567E-30
   3.840000     -3.7095916E-30
   3.850000     -3.1119184E-30
   3.860000     -2.4523440E-30
   3.870000     -1.7298906E-30
   3.880000     -9.4381071E-31
   3.890000     -9.3603093E-32
   3.900000      8.2097043E-31
   3.910000      1.7998665E-30
   3.920000      2.8427510E-30
   3.930000      3.9489790E-30
   3.940000      5.1175795E-30
   3.950000      6.3472452E-30
   3.960000      7.6363152E-30
   3.970000      8.9827607E-30
   3.980000      1.0384176E-29
   3.990000      1.1837765E-29
   4.000000      1.3340327E-29
   4.010000      1.4888245E-29
   4.020000      1.6477482E-29
   4.030000      1.8103564E-29
   4.040000      1.9761576E-29
   4.050000      2.1446149E-29
   4.060000      2.3151453E-29
   4.070000      2.4871196E-29
   4.080000      2.6598612E-29
   4.090000      2.8326460E-29
   4.100000      3.0047020E-29
   4.110000      3.1752085E-29
   4.120000      3.3432973E-29
   4.130000      3.5080513E-29
   4.140000      3.6685062E-29
   4.150000      3.8236492E-29
   4.160000      3.9724213E-29
   4.170000      4.1137168E-29
   4.180000      4.2463851E-29
   4.190000      4.3692312E-29
   4.200000      4.4810173E-29
   4.210000      4.5804642E-29
   4.220000      4.6662541E-29
   4.230000      4.7370326E-29
   4.240000      4.7914107E-29
   4.250000      4.8279666E-29
   4.260000      4.8452503E-29
   4.270000      4.8417864E-29
   4.280000      4.8160764E-29
   4.290000      4.7666050E-29
   4.300000      4.6918419E-29
   4.310000      4.5902473E-29
   4.320000      4.4602771E-29
   4.330000      4.3003870E-29
   4.340000      4.1090392E-29
   4.350000      3.8847075E-29
   4.360000      3.6258836E-29
   4.370000      3.3310827E-29
   4.380000      2.9988526E-29
   4.390000      2.6277791E-29
   4.400000      2.2164959E-29
   4.410000      1.7636904E-29
   4.420000      1.2681134E-29
   4.430000      7.2858923E-30
   4.440000      1.4402331E-30
   4.450000     -4.8658643E-30
   4.460000     -1.1641387E-29
   4.470000     -1.8894196E-29
   4.480000     -2.6630902E-29
   4.490000     -3.4856741E-29
   4.500000     -4.3575477E-29
   4.510000     -5.2789240E-29
   4.520000     -6.2498401E-29
   4.530000     -7.2701460E-29
   4.540000     -8.3394897E-29
   4.550000     -9.4573013E-29
   4.560000     -1.0622778E-28
   4.570000     -1.1834876E-28
   4.580000     -1.3092286E-28
   4.590000     -1.4393422E-28
   4.600000     -1.5736410E-28
   4.610000     -1.7119066E-28
   4.620000     -1.8538884E-28
   4.630000     -1.9993016E-28
   4.640000     -2.1478262E-28
   4.650000     -2.2991056E-28
   4.660000     -2.4527447E-28
   4.670000     -2.6083079E-28
   4.680000     -2.7653188E-28
   4.690000     -2.9232581E-28
   4.700000     -3.0815623E-28
   4.710000     -3.2396217E-28
   4.720000     -3.3967814E-28
   4.730000     -3.5523378E-28
   4.740000     -3.7055386E-28
   4.750000     -3.8555808E-28
   4.760000     -4.0016118E-28
   4.770000     -4.1427268E-28
   4.780000     -4.2779700E-28
   4.790000     -4.4063322E-28
   4.800000     -4.5267515E-28
   4.810000     -4.6381140E-28
   4.820000     -4.7392533E-28
   4.830000     -4.8289496E-28
   4.840000     -4.9059343E-28
   4.850000     -4.9688863E-28
   4.860000     -5.0164351E-28
   4.870000     -5.0471642E-28
   4.880000     -5.0596101E-28
   4.890000     -5.0522670E-28
   4.900000     -5.0235870E-28
   4.910000     -4.9719836E-28
   4.920000     -4.8958381E-28
   4.930000     -4.7935000E-28
   4.940000     -4.6632922E-28
   4.950000     -4.5035156E-28
   4.960000     -4.3124557E-28
   4.970000     -4.0883872E-28
   4.980000     -3.8295802E-28
   4.990000     -3.5343075E-28
   5.000000     -3.2008518E-28
   5.010000     -2.8275129E-28
   5.020000     -2.4126168E-28
   5.030000     -1.9545251E-28
   5.040000     -1.4516431E-28
   5.050000     -9.0243131E-29
   5.060000     -3.0541611E-29
   5.070000      3.4080019E-29
   5.080000      1.0375243E-28
   5.090000      1.7859620E-28
   5.100000      2.5872069E-28
   5.110000      3.4422208E-28
   5.120000      4.3518250E-28
   5.130000      5.3166837E-28
   5.140000      6.3372893E-28
   5.150000      7.4139448E-28
   5.160000      8.5467494E-28
   5.170000      9.7355816E-28
   5.180000      1.0980079E-27
   5.190000      1.2279627E-27
   5.200000      1.3633335E-27
   5.210000      1.5040022E-27
   5.220000      1.6498198E-27
   5.230000      1.8006043E-27
   5.240000      1.9561393E-27
   5.250000      2.1161718E-27
   5.260000      2.2804108E-27
   5.270000      2.4485249E-27
   5.280000      2.6201414E-27
   5.290000      2.7948435E-27
   5.300000      2.9721694E-27
   5.310000      3.1516106E-27
   5.320000      3.3326099E-27
   5.330000      3.5145606E-27
   5.340000      3.6968044E-27
   5.350000      3.8786315E-27
   5.360000      4.0592775E-27
   5.370000      4.2379237E-27
   5.380000      4.4136968E-27
   5.390000      4.5856669E-27
   5.400000      4.7528473E-27
   5.410000      4.9141948E-27
   5.420000      5.0686097E-27
   5.430000      5.2149353E-27
   5.440000      5.3519590E-27
   5.450000      5.4784121E-27
   5.460000      5.5929714E-27
   5.470000      5.6942607E-27
   5.480000      5.7808513E-27
   5.490000      5.8512652E-27
   5.500000      5.9039764E-27
   5.510000      5.9374144E-27
   5.520000      5.9499660E-27
   5.530000      5.9399786E-27
   5.540000      5.9057656E-27
   5.550000      5.8456107E-27
   5.560000      5.7577694E-27
   5.570000      5.6404776E-27
   5.580000      5.4919541E-27
   5.590000      5.3104102E-27
   5.600000      5.0940535E-27
   5.610000      4.8410957E-27
   5.620000      4.5497595E-27
   5.630000      4.2182865E-27
   5.640000      3.8449473E-27
   5.650000      3.4280490E-27
   5.660000      2.9659462E-27
   5.670000      2.4570477E-27
   5.680000      1.8998315E-27
   5.690000      1.2928526E-27
   5.700000      6.3475459E-28
   5.710000     -7.5717238E-29
   5.720000     -8.3970382E-28
   5.730000     -1.6582205E-27
   5.740000     -2.5321424E-27
   5.750000     -3.4621934E-27
   5.760000     -4.4489278E-27
   5.770000     -5.4927206E-27
   5.780000     -6.5937532E-27
   5.790000     -7.7519951E-27
   5.800000     -8.9671884E-27
   5.810000     -1.0238837E-26
   5.820000     -1.1566191E-26
   5.830000     -1.2948224E-26
   5.840000     -1.4383631E-26
   5.850000     -1.5870800E-26
   5.860000     -1.7407806E-26
   5.870000     -1.8992390E-26
   5.880000     -2.0621949E-26
   5.890000     -2.2293520E-26
   5.900000     -2.4003768E-26
   5.910000     -2.5748965E-26
   5.920000     -2.7524987E-26
   5.930000     -2.9327297E-26
   5.940000     -3.1150934E-26
   5.950000     -3.2990502E-26
   5.960000     -3.4840165E-26
   5.970000     -3.6693631E-26
   5.980000     -3.8544154E-26
   5.990000     -4.0384514E-26
   6.000000     -4.2207026E-26
   6.010000     -4.4003540E-26
   6.020000     -4.5765420E-26
   6.030000     -4.7483566E-26
   6.040000     -4.9148401E-26
   6.050000     -5.0749881E-26
   6.060000     -5.2277498E-26
   6.070000     -5.3720306E-26
   6.080000     -5.5066904E-26
   6.090000     -5.6305459E-26
   6.100000     -5.7423743E-26
   6.110000     -5.8409129E-26
   6.120000     -5.9248600E-26
   6.130000     -5.9928820E-26
   6.140000     -6.0436101E-26
   6.150000     -6.0756477E-26
   6.160000     -6.0875743E-26
   6.170000     -6.0779434E-26
   6.180000     -6.0452926E-26
   6.190000     -5.9881445E-26
   6.200000     -5.9050140E-26
   6.210000     -5.7944095E-26
   6.220000     -5.6548422E-26
   6.230000     -5.4848278E-26
   6.240000     -5.2828955E-26
   6.250000     -5.0475937E-26
   6.260000     -4.7774960E-26
   6.270000     -4.4712075E-26
   6.280000     -4.1273748E-26
   6.290000     -3.7446910E-26
   6.300000     -3.3219053E-26
   6.310000     -2.8578295E-26
   6.320000     -2.3513477E-26
   6.330000     -1.8014257E-26
   6.340000     -1.2071192E-26
   6.350000     -5.6758411E-27
   6.360000      1.1791446E-27
   6.370000      8.4999362E-27
   6.380000      1.6291414E-26
   6.390000      2.4557054E-26
   6.400000      3.3298851E-26
   6.410000      4.2517190E-26
   6.420000      5.2210765E-26
   6.430000      6.2376458E-26
   6.440000      7.3009280E-26
   6.450000      8.4102193E-26
   6.460000      9.5646057E-26
   6.470000      1.0762951E-25
   6.480000      1.2003889E-25
   6.490000      1.3285810E-25
   6.500000      1.4606858E-25
   6.510000      1.5964910E-25
   6.520000      1.7357584E-25
   6.530000      1.8782214E-25
   6.540000      2.0235854E-25
   6.550000      2.1715265E-25
   6.560000      2.3216909E-25
   6.570000      2.4736947E-25
   6.580000      2.6271233E-25
   6.590000      2.7815300E-25
   6.600000      2.9364366E-25
   6.610000      3.0913331E-25
   6.620000      3.2456777E-25
   6.630000      3.3988962E-25
   6.640000      3.5503824E-25
   6.650000      3.6994978E-25
   6.660000      3.8455732E-25
   6.670000      3.9879073E-25
   6.680000      4.1257692E-25
   6.690000      4.2583964E-25
   6.700000      4.3849982E-25
   6.710000      4.5047572E-25
   6.720000      4.6168277E-25
   6.730000      4.7203386E-25
   6.740000      4.8143949E-25
   6.750000      4.8980798E-25
   6.760000      4.9704558E-25
   6.770000      5.0305660E-25
   6.780000      5.0774381E-25
   6.790000      5.1100861E-25
   6.800000      5.1275126E-25
   6.810000      5.1287106E-25
   6.820000      5.1126692E-25
   6.830000      5.0783744E-25
   6.840000      5.0248127E-25
   6.850000      4.9509758E-25
   6.860000      4.8558639E-25
   6.870000      4.7384878E-25
   6.880000      4.5978748E-25
   6.890000      4.4330749E-25
   6.900000      4.2431595E-25
   6.910000      4.0272316E-25
   6.920000      3.7844286E-25
   6.930000      3.5139254E-25
   6.940000      3.2149427E-25
   6.950000      2.8867500E-25
   6.960000      2.5286710E-25
   6.970000      2.1400897E-25
   6.980000      1.7204552E-25
   6.990000      1.2692887E-25
   7.000000      7.8618679E-26
   7.010000      2.7083049E-26
   7.020000     -2.7701174E-26
   7.030000     -8.5747775E-26
   7.040000     -1.4706049E-25
   7.050000     -2.1163250E-25
   7.060000     -2.7944579E-25