  -2.600000      0.0000000E+00
  -2.590000      0.0000000E+00
  -2.580000      0.0000000E+00
  -2.570000      0.0000000E+00
  -2.560000      0.0000000E+00
  -2.550000      0.0000000E+00
  -2.540000      0.0000000E+00
  -2.530000      0.0000000E+00
  -2.520000      0.0000000E+00
  -2.510000      0.0000000E+00
  -2.500000      0.0000000E+00
  -2.490000      0.0000000E+00
  -2.480000      0.0000000E+00
  -2.470000      0.0000000E+00
  -2.460000      0.0000000E+00
  -2.450000      0.0000000E+00
  -2.440000      0.0000000E+00
  -2.430000      0.0000000E+00
  -2.420000      0.0000000E+00
  -2.410000      0.0000000E+00
  -2.400000      0.0000000E+00
  -2.390000      0.0000000E+00
  -2.380000      0.0000000E+00
  -2.370000      0.0000000E+00
  -2.360000      0.0000000E+00
  -2.350000      0.0000000E+00
  -2.340000      0.0000000E+00
  -2.330000      0.0000000E+00
  -2.320000      0.0000000E+00
  -2.310000      0.0000000E+00
  -2.300000      0.0000000E+00
  -2.290000      0.0000000E+00
  -2.280000      0.0000000E+00
  -2.270000      0.0000000E+00
  -2.260000      0.0000000E+00
  -2.250000      0.0000000E+00
  -2.240000      0.0000000E+00
  -2.230000      0.0000000E+00
  -2.220000      0.0000000E+00
  -2.210000      0.0000000E+00
  -2.200000      0.0000000E+00
  -2.190000      0.0000000E+00
  -2.180000      0.0000000E+00
  -2.170000      0.0000000E+00
  -2.160000      0.0000000E+00
  -2.150000      0.0000000E+00
  -2.140000      0.0000000E+00
  -2.130000      0.0000000E+00
  -2.120000      0.0000000E+00
  -2.110000      0.0000000E+00
  -2.100000      0.0000000E+00
  -2.090000      0.0000000E+00
  -2.080000      0.0000000E+00
  -2.070000      0.0000000E+00
  -2.060000      0.0000000E+00
  -2.050000      0.0000000E+00
  -2.040000      0.0000000E+00
  -2.030000      0.0000000E+00
  -2.020000      0.0000000E+00
  -2.010000      0.0000000E+00
  -2.000000      0.0000000E+00
  -1.990000      0.0000000E+00
  -1.980000      0.0000000E+00
  -1.970000      0.0000000E+00
  -1.960000      0.0000000E+00
  -1.950000      0.0000000E+00
  -1.940000      0.0000000E+00
  -1.930000      0.0000000E+00
  -1.920000      0.0000000E+00
  -1.910000      0.0000000E+00
  -1.900000      0.0000000E+00
  -1.890000      0.0000000E+00
  -1.880000      0.0000000E+00
  -1.870000      0.0000000E+00
  -1.860000      0.0000000E+00
  -1.850000      0.0000000E+00
  -1.840000      0.0000000E+00
  -1.830000      0.0000000E+00
  -1.820000      0.0000000E+00
  -1.810000      0.0000000E+00
  -1.800000      0.0000000E+00
  -1.790000      0.0000000E+00
  -1.780000      0.0000000E+00
  -1.770000      0.0000000E+00
  -1.760000      0.0000000E+00
  -1.750000      0.0000000E+00
  -1.740000      0.0000000E+00
  -1.730000      0.0000000E+00
  -1.720000      0.0000000E+00
  -1.710000      0.0000000E+00
  -1.700000      0.0000000E+00
  -1.690000      0.0000000E+00
  -1.680000      0.0000000E+00
  -1.670000      0.0000000E+00
  -1.660000      0.0000000E+00
  -1.650000      0.0000000E+00
  -1.640000      0.0000000E+00
  -1.630000      0.0000000E+00
  -1.620000      0.0000000E+00
  -1.610000      0.0000000E+00
  -1.600000      0.0000000E+00
  -1.590000      0.0000000E+00
  -1.580000      0.0000000E+00
  -1.570000      0.0000000E+00
  -1.560000      0.0000000E+00
  -1.550000      0.0000000E+00
  -1.540000      0.0000000E+00
  -1.530000      0.0000000E+00
  -1.520000      0.0000000E+00
  -1.510000      0.0000000E+00
  -1.500000      0.0000000E+00
  -1.490000      0.0000000E+00
  -1.480000      0.0000000E+00
  -1.470000      0.0000000E+00
  -1.460000      0.0000000E+00
  -1.450000      0.0000000E+00
  -1.440000      0.0000000E+00
  -1.430000      0.0000000E+00
  -1.420000      0.0000000E+00
  -1.410000      0.0000000E+00
  -1.400000      0.0000000E+00
  -1.390000      0.0000000E+00
  -1.380000      0.0000000E+00
  -1.370000      0.0000000E+00
  -1.360000      0.0000000E+00
  -1.350000      0.0000000E+00
  -1.340000      0.0000000E+00
  -1.330000      0.0000000E+00
  -1.320000      0.0000000E+00
  -1.310000      0.0000000E+00
  -1.300000      0.0000000E+00
  -1.290000      0.0000000E+00
  -1.280000      0.0000000E+00
  -1.270000      0.0000000E+00
  -1.260000      0.0000000E+00
  -1.250000      0.0000000E+00
  -1.240000      0.0000000E+00
  -1.230000      0.0000000E+00
  -1.220000      0.0000000E+00
  -1.210000      0.0000000E+00
  -1.200000      0.0000000E+00
  -1.190000      0.0000000E+00
  -1.180000      0.0000000E+00
  -1.170000      0.0000000E+00
  -1.160000      0.0000000E+00
  -1.150000      0.0000000E+00
  -1.140000      0.0000000E+00
  -1.130000      0.0000000E+00
  -1.120000      0.0000000E+00
  -1.110000      0.0000000E+00
  -1.100000      0.0000000E+00
  -1.090000      0.0000000E+00
  -1.080000      0.0000000E+00
  -1.070000      0.0000000E+00
  -1.060000      0.0000000E+00
  -1.050000      0.0000000E+00
  -1.040000      0.0000000E+00
  -1.030000      0.0000000E+00
  -1.020000      0.0000000E+00
  -1.010000      0.0000000E+00
  -1.000000      0.0000000E+00
 -0.9900000      0.0000000E+00
 -0.9800000      0.0000000E+00
 -0.9700000      0.0000000E+00
 -0.9600000      0.0000000E+00
 -0.9500000      0.0000000E+00
 -0.9400000      0.0000000E+00
 -0.9300000      0.0000000E+00
 -0.9200000      0.0000000E+00
 -0.9100000      0.0000000E+00
 -0.9000000      0.0000000E+00
 -0.8900000      0.0000000E+00
 -0.8800000      0.0000000E+00
 -0.8700000      0.0000000E+00
 -0.8600000      0.0000000E+00
 -0.8500000      0.0000000E+00
 -0.8400000      0.0000000E+00
 -0.8300000      0.0000000E+00
 -0.8200000      0.0000000E+00
 -0.8100000      0.0000000E+00
 -0.8000000      0.0000000E+00
 -0.7900000      0.0000000E+00
 -0.7800000      0.0000000E+00
 -0.7700000      0.0000000E+00
 -0.7600000      0.0000000E+00
 -0.7500000      0.0000000E+00
 -0.7400000      0.0000000E+00
 -0.7300000      0.0000000E+00
 -0.7200000      0.0000000E+00
 -0.7100000      0.0000000E+00
 -0.7000000      0.0000000E+00
 -0.6900000      0.0000000E+00
 -0.6800000      0.0000000E+00
 -0.6700000      0.0000000E+00
 -0.6600000      0.0000000E+00
 -0.6500000      0.0000000E+00
 -0.6400000      0.0000000E+00
 -0.6300000      0.0000000E+00
 -0.6200000      0.0000000E+00
 -0.6100000      0.0000000E+00
 -0.6000000      0.0000000E+00
 -0.5900000      0.0000000E+00
 -0.5800000      0.0000000E+00
 -0.5700000      0.0000000E+00
 -0.5600000      0.0000000E+00
 -0.5500000      0.0000000E+00
 -0.5400000      0.0000000E+00
 -0.5300000      0.0000000E+00
 -0.5200000      0.0000000E+00
 -0.5100000      0.0000000E+00
 -0.5000000      0.0000000E+00
 -0.4900000      0.0000000E+00
 -0.4800000      0.0000000E+00
 -0.4700000      0.0000000E+00
 -0.4600000      0.0000000E+00
 -0.4500000      0.0000000E+00
 -0.4400000      0.0000000E+00
 -0.4300000      0.0000000E+00
 -0.4200000      0.0000000E+00
 -0.4100000      0.0000000E+00
 -0.4000000      0.0000000E+00
 -0.3900000      0.0000000E+00
 -0.3800000      0.0000000E+00
 -0.3700000      0.0000000E+00
 -0.3600000      0.0000000E+00
 -0.3500000      0.0000000E+00
 -0.3400000      0.0000000E+00
 -0.3300000      0.0000000E+00
 -0.3200000      0.0000000E+00
 -0.3100000      0.0000000E+00
 -0.3000000      0.0000000E+00
 -0.2900000      0.0000000E+00
 -0.2800000      0.0000000E+00
 -0.2700000      0.0000000E+00
 -0.2600000      0.0000000E+00
 -0.2500000      0.0000000E+00
 -0.2400000      0.0000000E+00
 -0.2300000      0.0000000E+00
 -0.2200000      0.0000000E+00
 -0.2100000      0.0000000E+00
 -0.2000000      0.0000000E+00
 -0.1900000      0.0000000E+00
 -0.1800000      0.0000000E+00
 -0.1700000      0.0000000E+00
 -0.1600000      0.0000000E+00
 -0.1500000      0.0000000E+00
 -0.1400000      0.0000000E+00
 -0.1300000      0.0000000E+00
 -0.1200000      0.0000000E+00
 -0.1100000      0.0000000E+00
 -0.1000000      0.0000000E+00
 -9.0000004E-02  0.0000000E+00
 -7.9999998E-02  0.0000000E+00
 -7.0000000E-02  0.0000000E+00
 -5.9999999E-02  0.0000000E+00
 -5.0000001E-02  0.0000000E+00
 -3.9999999E-02  0.0000000E+00
 -2.9999999E-02  0.0000000E+00
 -2.0000000E-02  0.0000000E+00
 -9.9999998E-03  0.0000000E+00
 -3.4694470E-17  0.0000000E+00
  9.9999998E-03  0.0000000E+00
  2.0000000E-02  0.0000000E+00
  2.9999999E-02  0.0000000E+00
  3.9999999E-02  0.0000000E+00
  5.0000001E-02  0.0000000E+00
  5.9999999E-02  0.0000000E+00
  7.0000000E-02  0.0000000E+00
  7.9999998E-02  0.0000000E+00
  9.0000004E-02  0.0000000E+00
  0.1000000      0.0000000E+00
  0.1100000      0.0000000E+00
  0.1200000      0.0000000E+00
  0.1300000      0.0000000E+00
  0.1400000      0.0000000E+00
  0.1500000      0.0000000E+00
  0.1600000      0.0000000E+00
  0.1700000      0.0000000E+00
  0.1800000      0.0000000E+00
  0.1900000      0.0000000E+00
  0.2000000      0.0000000E+00
  0.2100000      0.0000000E+00
  0.2200000      0.0000000E+00
  0.2300000      0.0000000E+00
  0.2400000      0.0000000E+00
  0.2500000      0.0000000E+00
  0.2600000      0.0000000E+00
  0.2700000      0.0000000E+00
  0.2800000      0.0000000E+00
  0.2900000      0.0000000E+00
  0.3000000      0.0000000E+00
  0.3100000      0.0000000E+00
  0.3200000      0.0000000E+00
  0.3300000      0.0000000E+00
  0.3400000      0.0000000E+00
  0.3500000      0.0000000E+00
  0.3600000      0.0000000E+00
  0.3700000      0.0000000E+00
  0.3800000      0.0000000E+00
  0.3900000      0.0000000E+00
  0.4000000      0.0000000E+00
  0.4100000      0.0000000E+00
  0.4200000      0.0000000E+00
  0.4300000      0.0000000E+00
  0.4400000      0.0000000E+00
  0.4500000      0.0000000E+00
  0.4600000      0.0000000E+00
  0.4700000      0.0000000E+00
  0.4800000      0.0000000E+00
  0.4900000      0.0000000E+00
  0.5000000      0.0000000E+00
  0.5100000      0.0000000E+00
  0.5200000      0.0000000E+00
  0.5300000      0.0000000E+00
  0.5400000      0.0000000E+00
  0.5500000      0.0000000E+00
  0.5600000      0.0000000E+00
  0.5700000      0.0000000E+00
  0.5800000      0.0000000E+00
  0.5900000      0.0000000E+00
  0.6000000      0.0000000E+00
  0.6100000      0.0000000E+00
  0.6200000      0.0000000E+00
  0.6300000      0.0000000E+00
  0.6400000      0.0000000E+00
  0.6500000      0.0000000E+00
  0.6600000      0.0000000E+00
  0.6700000      0.0000000E+00
  0.6800000      0.0000000E+00
  0.6900000      0.0000000E+00
  0.7000000      0.0000000E+00
  0.7100000      0.0000000E+00
  0.7200000      0.0000000E+00
  0.7300000      0.0000000E+00
  0.7400000      0.0000000E+00
  0.7500000      0.0000000E+00
  0.7600000      0.0000000E+00
  0.7700000      0.0000000E+00
  0.7800000      0.0000000E+00
  0.7900000      0.0000000E+00
  0.8000000      0.0000000E+00
  0.8100000      0.0000000E+00
  0.8200000      0.0000000E+00
  0.8300000      0.0000000E+00
  0.8400000      0.0000000E+00
  0.8500000      0.0000000E+00
  0.8600000      0.0000000E+00
  0.8700000      0.0000000E+00
  0.8800000      0.0000000E+00
  0.8900000      0.0000000E+00
  0.9000000      0.0000000E+00
  0.9100000      0.0000000E+00
  0.9200000      0.0000000E+00
  0.9300000      0.0000000E+00
  0.9400000      0.0000000E+00
  0.9500000      0.0000000E+00
  0.9600000      0.0000000E+00
  0.9700000      0.0000000E+00
  0.9800000      0.0000000E+00
  0.9900000      0.0000000E+00
   1.000000      0.0000000E+00
   1.010000      0.0000000E+00
   1.020000      0.0000000E+00
   1.030000      0.0000000E+00
   1.040000      0.0000000E+00
   1.050000      0.0000000E+00
   1.060000      0.0000000E+00
   1.070000      0.0000000E+00
   1.080000      0.0000000E+00
   1.090000      0.0000000E+00
   1.100000      0.0000000E+00
   1.110000      0.0000000E+00
   1.120000      0.0000000E+00
   1.130000      0.0000000E+00
   1.140000      0.0000000E+00
   1.150000      0.0000000E+00
   1.160000      0.0000000E+00
   1.170000      0.0000000E+00
   1.180000      0.0000000E+00
   1.190000      0.0000000E+00
   1.200000      0.0000000E+00
   1.210000      0.0000000E+00
   1.220000      0.0000000E+00
   1.230000      0.0000000E+00
   1.240000      0.0000000E+00
   1.250000      0.0000000E+00
   1.260000      0.0000000E+00
   1.270000      0.0000000E+00
   1.280000      0.0000000E+00
   1.290000      0.0000000E+00
   1.300000      0.0000000E+00
   1.310000      0.0000000E+00
   1.320000      0.0000000E+00
   1.330000      0.0000000E+00
   1.340000      0.0000000E+00
   1.350000      0.0000000E+00
   1.360000      0.0000000E+00
   1.370000      0.0000000E+00
   1.380000      0.0000000E+00
   1.390000      0.0000000E+00
   1.400000      0.0000000E+00
   1.410000      0.0000000E+00
   1.420000      0.0000000E+00
   1.430000      0.0000000E+00
   1.440000      0.0000000E+00
   1.450000      0.0000000E+00
   1.460000      0.0000000E+00
   1.470000      0.0000000E+00
   1.480000      0.0000000E+00
   1.490000      0.0000000E+00
   1.500000      0.0000000E+00
   1.510000      0.0000000E+00
   1.520000      0.0000000E+00
   1.530000      0.0000000E+00
   1.540000      0.0000000E+00
   1.550000      0.0000000E+00
   1.560000      0.0000000E+00
   1.570000      0.0000000E+00
   1.580000      0.0000000E+00
   1.590000      0.0000000E+00
   1.600000      0.0000000E+00
   1.610000      0.0000000E+00
   1.620000      0.0000000E+00
   1.630000      0.0000000E+00
   1.640000      0.0000000E+00
   1.650000      0.0000000E+00
   1.660000      0.0000000E+00
   1.670000      0.0000000E+00
   1.680000      0.0000000E+00
   1.690000      0.0000000E+00
   1.700000      0.0000000E+00
   1.710000      0.0000000E+00
   1.720000      0.0000000E+00
   1.730000      0.0000000E+00
   1.740000      0.0000000E+00
   1.750000      0.0000000E+00
   1.760000      0.0000000E+00
   1.770000      0.0000000E+00
   1.780000      0.0000000E+00
   1.790000      0.0000000E+00
   1.800000      0.0000000E+00
   1.810000      0.0000000E+00
   1.820000      0.0000000E+00
   1.830000      0.0000000E+00
   1.840000      0.0000000E+00
   1.850000      0.0000000E+00
   1.860000      0.0000000E+00
   1.870000      0.0000000E+00
   1.880000      0.0000000E+00
   1.890000      0.0000000E+00
   1.900000      0.0000000E+00
   1.910000      0.0000000E+00
   1.920000      0.0000000E+00
   1.930000      0.0000000E+00
   1.940000      0.0000000E+00
   1.950000      0.0000000E+00
   1.960000      0.0000000E+00
   1.970000      0.0000000E+00
   1.980000      0.0000000E+00
   1.990000      0.0000000E+00
   2.000000      0.0000000E+00
   2.010000      0.0000000E+00
   2.020000      0.0000000E+00
   2.030000      0.0000000E+00
   2.040000      0.0000000E+00
   2.050000      0.0000000E+00
   2.060000      0.0000000E+00
   2.070000      0.0000000E+00
   2.080000      0.0000000E+00
   2.090000      0.0000000E+00
   2.100000      0.0000000E+00
   2.110000      0.0000000E+00
   2.120000      0.0000000E+00
   2.130000      0.0000000E+00
   2.140000      0.0000000E+00
   2.150000      0.0000000E+00
   2.160000      0.0000000E+00
   2.170000      0.0000000E+00
   2.180000      0.0000000E+00
   2.190000      0.0000000E+00
   2.200000      0.0000000E+00
   2.210000      0.0000000E+00
   2.220000      0.0000000E+00
   2.230000      0.0000000E+00
   2.240000      0.0000000E+00
   2.250000      0.0000000E+00
   2.260000      0.0000000E+00
   2.270000      0.0000000E+00
   2.280000      0.0000000E+00
   2.290000      0.0000000E+00
   2.300000      0.0000000E+00
   2.310000      0.0000000E+00
   2.320000      0.0000000E+00
   2.330000      0.0000000E+00
   2.340000      0.0000000E+00
   2.350000      0.0000000E+00
   2.360000      0.0000000E+00
   2.370000      0.0000000E+00
   2.380000      0.0000000E+00
   2.390000      0.0000000E+00
   2.400000      0.0000000E+00
   2.410000      0.0000000E+00
   2.420000      0.0000000E+00
   2.430000      0.0000000E+00
   2.440000      0.0000000E+00
   2.450000      0.0000000E+00
   2.460000      0.0000000E+00
   2.470000      0.0000000E+00
   2.480000      0.0000000E+00
   2.490000      0.0000000E+00
   2.500000      0.0000000E+00
   2.510000      0.0000000E+00
   2.520000      0.0000000E+00
   2.530000      0.0000000E+00
   2.540000      0.0000000E+00
   2.550000      0.0000000E+00
   2.560000      0.0000000E+00
   2.570000      0.0000000E+00
   2.580000      0.0000000E+00
   2.590000      0.0000000E+00
   2.600000      0.0000000E+00
   2.610000      0.0000000E+00
   2.620000     -1.2525526E-38
   2.630000     -1.3703176E-38
   2.640000     -1.4882370E-38
   2.650000     -1.6055013E-38
   2.660000     -1.7328053E-38
   2.670000     -1.8618010E-38
   2.680000     -1.9875907E-38
   2.690000     -2.1135918E-38
   2.700000     -2.2387493E-38
   2.710000     -2.3610626E-38
   2.720000     -2.4783642E-38
   2.730000     -2.5360005E-38
   2.740000     -2.5264814E-38
   2.750000     -2.4949595E-38
   2.760000     -2.4396881E-38
   2.770000     -2.4900698E-38
   2.780000     -2.6585488E-38
   2.790000     -2.8350474E-38
   2.800000     -2.9773845E-38
   2.810000     -3.0830239E-38
   2.820000     -3.2018661E-38
   2.830000     -3.3468736E-38
   2.840000     -4.0135127E-38
   2.850000     -5.2443270E-38
   2.860000     -6.3524127E-38
   2.870000     -7.2706853E-38
   2.880000     -8.2625339E-38
   2.890000     -1.0022759E-37
   2.900000     -1.2554880E-37
   2.910000     -1.2219191E-37
   2.920000     -8.4848723E-38
   2.930000     -4.1655929E-38
   2.940000      0.0000000E+00
   2.950000      2.7973777E-38
   2.960000      0.0000000E+00
   2.970000     -5.4657764E-38
   2.980000     -1.2381757E-37
   2.990000     -1.9682466E-37
   3.000000     -2.4499959E-37
   3.010000     -2.6201824E-37
   3.020000     -2.7222440E-37
   3.030000     -2.7199309E-37
   3.040000     -2.6567204E-37
   3.050000     -2.6085853E-37
   3.060000     -2.5537490E-37
   3.070000     -2.4184526E-37
   3.080000     -2.2167517E-37
   3.090000     -2.0245436E-37
   3.100000     -1.8801570E-37
   3.110000     -1.8999948E-37
   3.120000     -1.7625928E-37
   3.130000     -1.4369032E-37
   3.140000     -1.4102273E-37
   3.150000     -1.8670318E-37
   3.160000     -2.6851659E-37
   3.170000     -3.2037167E-37
   3.180000     -3.2273179E-37
   3.190000     -2.9560958E-37
   3.200000     -2.2384342E-37
   3.210000     -1.0815399E-37
   3.220000      3.8777855E-38
   3.230000      2.0685174E-37
   3.240000      3.8924336E-37
   3.250000      5.7962843E-37
   3.260000      7.6747884E-37
   3.270000      9.3483504E-37
   3.280000      1.0765241E-36
   3.290000      1.1712928E-36
   3.300000      1.2223373E-36
   3.310000      1.2702129E-36
   3.320000      1.3566073E-36
   3.330000      1.4869110E-36
   3.340000      1.6830304E-36
   3.350000      1.9569036E-36
   3.360000      2.2774735E-36
   3.370000      2.6290113E-36
   3.380000      2.9667163E-36
   3.390000      3.2941443E-36
   3.400000      3.5308693E-36
   3.410000      3.5094630E-36
   3.420000      3.2988885E-36
   3.430000      3.0304035E-36
   3.440000      2.7446437E-36
   3.450000      2.5526273E-36
   3.460000      2.4212965E-36
   3.470000      2.3682757E-36
   3.480000      2.4118389E-36
   3.490000      2.4620610E-36
   3.500000      2.5254478E-36
   3.510000      2.5974388E-36
   3.520000      2.8193951E-36
   3.530000      3.1506944E-36
   3.540000      3.3226240E-36
   3.550000      3.3309983E-36
   3.560000      3.2914179E-36
   3.570000      3.1219986E-36
   3.580000      3.0410403E-36
   3.590000      2.9912349E-36
   3.600000      2.7850908E-36
   3.610000      2.4398103E-36
   3.620000      1.9013836E-36
   3.630000      1.1014182E-36
   3.640000      1.7587460E-38
   3.650000     -1.6701628E-36
   3.660000     -4.1336592E-36
   3.670000     -6.7497497E-36
   3.680000     -9.1356187E-36
   3.690000     -1.0712862E-35
   3.700000     -1.1703991E-35
   3.710000     -1.2814981E-35
   3.720000     -1.3749593E-35
   3.730000     -1.4486916E-35
   3.740000     -1.5497914E-35
   3.750000     -1.6665821E-35
   3.760000     -1.7278239E-35
   3.770000     -1.7396862E-35
   3.780000     -1.7330374E-35
   3.790000     -1.7408527E-35
   3.800000     -1.8245337E-35
   3.810000     -1.9682280E-35
   3.820000     -2.1790306E-35
   3.830000     -2.4578112E-35
   3.840000     -2.7412775E-35
   3.850000     -2.9745072E-35
   3.860000     -3.1247145E-35
   3.870000     -3.1994787E-35
   3.880000     -3.2371748E-35
   3.890000     -3.2188201E-35
   3.900000     -3.0494642E-35
   3.910000     -2.7594199E-35
   3.920000     -2.4697001E-35
   3.930000     -2.2425920E-35
   3.940000     -2.0211208E-35
   3.950000     -1.7376671E-35
   3.960000     -1.4315564E-35
   3.970000     -1.0616878E-35
   3.980000     -6.5491307E-36
   3.990000     -3.8261505E-36
   4.000000     -3.0919914E-36
   4.010000     -3.2349376E-36
   4.020000     -2.9075846E-36
   4.030000     -1.4219489E-36
   4.040000      1.3926487E-36
   4.050000      4.7754727E-36
   4.060000      1.0176241E-35
   4.070000      1.9114854E-35
   4.080000      3.0025056E-35
   4.090000      4.1737370E-35
   4.100000      5.4407584E-35
   4.110000      6.7614957E-35
   4.120000      8.0547134E-35
   4.130000      9.2664455E-35
   4.140000      1.0369317E-34
   4.150000      1.1341351E-34
   4.160000      1.2163370E-34
   4.170000      1.2856355E-34
   4.180000      1.3474466E-34
   4.190000      1.3948217E-34
   4.200000      1.4490707E-34
   4.210000      1.5272571E-34
   4.220000      1.6145756E-34
   4.230000      1.7264426E-34
   4.240000      1.8705487E-34
   4.250000      2.0228391E-34
   4.260000      2.1623212E-34
   4.270000      2.3165442E-34
   4.280000      2.4979700E-34
   4.290000      2.6593016E-34
   4.300000      2.7646491E-34
   4.310000      2.8368947E-34
   4.320000      2.8369165E-34
   4.330000      2.7050618E-34
   4.340000      2.4906335E-34
   4.350000      2.2339678E-34
   4.360000      1.9855468E-34
   4.370000      1.7424934E-34
   4.380000      1.4833107E-34
   4.390000      1.2291601E-34
   4.400000      9.8841718E-35
   4.410000      7.6345597E-35
   4.420000      6.1729949E-35
   4.430000      5.6972733E-35
   4.440000      5.3742138E-35
   4.450000      4.9694529E-35
   4.460000      4.0006085E-35
   4.470000      1.8575607E-35
   4.480000     -1.3242648E-35
   4.490000     -5.0912503E-35
   4.500000     -9.8589366E-35
   4.510000     -1.5342381E-34
   4.520000     -2.1428945E-34
   4.530000     -2.8968965E-34
   4.540000     -3.7568774E-34
   4.550000     -4.7004029E-34
   4.560000     -5.7323570E-34
   4.570000     -6.7808842E-34
   4.580000     -7.8336688E-34
   4.590000     -8.8381839E-34
   4.600000     -9.6125885E-34
   4.610000     -1.0114369E-33
   4.620000     -1.0478141E-33
   4.630000     -1.0737548E-33
   4.640000     -1.0994486E-33
   4.650000     -1.1335500E-33
   4.660000     -1.1777836E-33
   4.670000     -1.2398784E-33
   4.680000     -1.3264243E-33
   4.690000     -1.4341222E-33
   4.700000     -1.5497097E-33
   4.710000     -1.6770543E-33
   4.720000     -1.8067170E-33
   4.730000     -1.9239746E-33
   4.740000     -2.0179633E-33
   4.750000     -2.0848382E-33
   4.760000     -2.1270343E-33
   4.770000     -2.1391823E-33
   4.780000     -2.1230477E-33
   4.790000     -2.0793092E-33
   4.800000     -2.0158637E-33
   4.810000     -1.9388415E-33
   4.820000     -1.8553766E-33
   4.830000     -1.7643858E-33
   4.840000     -1.6558155E-33
   4.850000     -1.5398340E-33
   4.860000     -1.4243908E-33
   4.870000     -1.3062052E-33
   4.880000     -1.1874708E-33
   4.890000     -1.0617916E-33
   4.900000     -9.0102836E-34
   4.910000     -7.0033938E-34
   4.920000     -4.6146607E-34
   4.930000     -1.8386221E-34
   4.940000      1.3172911E-34
   4.950000      4.8876348E-34
   4.960000      8.8767520E-34
   4.970000      1.3312837E-33
   4.980000      1.8110988E-33
   4.990000      2.3214518E-33
   5.000000      2.8594201E-33
   5.010000      3.4170276E-33
   5.020000      3.9920504E-33
   5.030000      4.5822030E-33
   5.040000      5.1850475E-33
   5.050000      5.8043578E-33
   5.060000      6.4411375E-33
   5.070000      7.0989147E-33
   5.080000      7.7827225E-33
   5.090000      8.4970190E-33
   5.100000      9.2439495E-33
   5.110000      1.0023832E-32
   5.120000      1.0835566E-32
   5.130000      1.1674543E-32
   5.140000      1.2533523E-32
   5.150000      1.3403798E-32
   5.160000      1.4273743E-32
   5.170000      1.5131639E-32
   5.180000      1.5966709E-32
   5.190000      1.6766204E-32
   5.200000      1.7519784E-32
   5.210000      1.8218881E-32
   5.220000      1.8860417E-32
   5.230000      1.9438831E-32
   5.240000      1.9947046E-32
   5.250000      2.0383225E-32
   5.260000      2.0737476E-32
   5.270000      2.1009142E-32
   5.280000      2.1201747E-32
   5.290000      2.1303702E-32
   5.300000      2.1304895E-32
   5.310000      2.1193880E-32
   5.320000      2.0943521E-32
   5.330000      2.0539162E-32
   5.340000      1.9971583E-32
   5.350000      1.9218832E-32
   5.360000      1.8262370E-32
   5.370000      1.7085969E-32
   5.380000      1.5673701E-32
   5.390000      1.4016474E-32
   5.400000      1.2110653E-32
   5.410000      9.9410698E-33
   5.420000      7.4966601E-33
   5.430000      4.7771874E-33
   5.440000      1.7781960E-33
   5.450000     -1.5075573E-33
   5.460000     -5.0852117E-33
   5.470000     -8.9613084E-33
   5.480000     -1.3146219E-32
   5.490000     -1.7650330E-32
   5.500000     -2.2484926E-32
   5.510000     -2.7660734E-32
   5.520000     -3.3187808E-32
   5.530000     -3.9073265E-32
   5.540000     -4.5321370E-32
   5.550000     -5.1933576E-32
   5.560000     -5.8906379E-32
   5.570000     -6.6231777E-32
   5.580000     -7.3897294E-32
   5.590000     -8.1886324E-32
   5.600000     -9.0178555E-32
   5.610000     -9.8750647E-32
   5.620000     -1.0757713E-31
   5.630000     -1.1663069E-31
   5.640000     -1.2588247E-31
   5.650000     -1.3530260E-31
   5.660000     -1.4485998E-31
   5.670000     -1.5452158E-31
   5.680000     -1.6425183E-31
   5.690000     -1.7401179E-31
   5.700000     -1.8375803E-31
   5.710000     -1.9344209E-31
   5.720000     -2.0300957E-31
   5.730000     -2.1239904E-31
   5.740000     -2.2154232E-31
   5.750000     -2.3036426E-31
   5.760000     -2.3878310E-31
   5.770000     -2.4671137E-31
   5.780000     -2.5405621E-31
   5.790000     -2.6072020E-31
   5.800000     -2.6660224E-31
   5.810000     -2.7159912E-31
   5.820000     -2.7560532E-31
   5.830000     -2.7851244E-31
   5.840000     -2.8021042E-31
   5.850000     -2.8058662E-31
   5.860000     -2.7952583E-31
   5.870000     -2.7691240E-31
   5.880000     -2.7261964E-31
   5.890000     -2.6651704E-31
   5.900000     -2.5847663E-31
   5.910000     -2.4836291E-31
   5.920000     -2.3603647E-31
   5.930000     -2.2135490E-31
   5.940000     -2.0417378E-31
   5.950000     -1.8434798E-31
   5.960000     -1.6173329E-31
   5.970000     -1.3618791E-31
   5.980000     -1.0757391E-31
   5.990000     -7.5758660E-32
   6.000000     -4.0616039E-32
   6.010000     -2.0273253E-33
   6.020000      4.0118059E-32
   6.030000      8.5922137E-32
   6.040000      1.3547799E-31
   6.050000      1.8886931E-31
   6.060000      2.4617017E-31
   6.070000      3.0744422E-31
   6.080000      3.7274397E-31
   6.090000      4.4210958E-31
   6.100000      5.1556721E-31
   6.110000      5.9312737E-31
   6.120000      6.7478252E-31
   6.130000      7.6050493E-31
   6.140000      8.5024419E-31
   6.150000      9.4392469E-31
   6.160000      1.0414435E-30
   6.170000      1.1426682E-30
   6.180000      1.2474354E-30
   6.190000      1.3555487E-30
   6.200000      1.4667780E-30
   6.210000      1.5808584E-30
   6.220000      1.6974891E-30
   6.230000      1.8163329E-30
   6.240000      1.9370155E-30
   6.250000      2.0591244E-30
   6.260000      2.1822073E-30
   6.270000      2.3057717E-30
   6.280000      2.4292823E-30
   6.290000      2.5521596E-30
   6.300000      2.6737785E-30
   6.310000      2.7934657E-30
   6.320000      2.9104986E-30
   6.330000      3.0241040E-30
   6.340000      3.1334562E-30
   6.350000      3.2376767E-30
   6.360000      3.3358352E-30
   6.370000      3.4269478E-30
   6.380000      3.5099806E-30
   6.390000      3.5838491E-30
   6.400000      3.6474190E-30
   6.410000      3.6995106E-30
   6.420000      3.7388992E-30
   6.430000      3.7643177E-30
   6.440000      3.7744571E-30
   6.450000      3.7679717E-30
   6.460000      3.7434778E-30
   6.470000      3.6995598E-30
   6.480000      3.6347685E-30
   6.490000      3.5476280E-30
   6.500000      3.4366365E-30
   6.510000      3.3002709E-30
   6.520000      3.1369936E-30
   6.530000      2.9452566E-30
   6.540000      2.7235068E-30
   6.550000      2.4701961E-30
   6.560000      2.1837869E-30
   6.570000      1.8627619E-30
   6.580000      1.5056342E-30
   6.590000      1.1109547E-30
   6.600000      6.7732365E-31
   6.610000      2.0339995E-31
   6.620000     -3.1208738E-31
   6.630000     -8.7032906E-31
   6.640000     -1.4724252E-30
   6.650000     -2.1193729E-30
   6.660000     -2.8120567E-30
   6.670000     -3.5512358E-30
   6.680000     -4.3375294E-30
   6.690000     -5.1714036E-30
   6.700000     -6.0531591E-30
   6.710000     -6.9829127E-30
   6.720000     -7.9605839E-30
   6.730000     -8.9858791E-30
   6.740000     -1.0058274E-29
   6.750000     -1.1176998E-29
   6.760000     -1.2341013E-29
   6.770000     -1.3549001E-29
   6.780000     -1.4799345E-29
   6.790000     -1.6090111E-29
   6.800000     -1.7419031E-29
   6.810000     -1.8783494E-29
   6.820000     -2.0180517E-29
   6.830000     -2.1606743E-29
   6.840000     -2.3058416E-29
   6.850000     -2.4531372E-29
   6.860000     -2.6021020E-29
   6.870000     -2.7522336E-29
   6.880000     -2.9029840E-29
   6.890000     -3.0537587E-29
   6.900000     -3.2039151E-29
   6.910000     -3.3527618E-29
   6.920000     -3.4995576E-29
   6.930000     -3.6435110E-29
   6.940000     -3.7837777E-29
   6.950000     -3.9194621E-29
   6.960000     -4.0496156E-29
   6.970000     -4.1732374E-29
   6.980000     -4.2892738E-29
   6.990000     -4.3966197E-29
   7.000000     -4.4941172E-29
   7.010000     -4.5805590E-29
   7.020000     -4.6546880E-29
   7.030000     -4.7151998E-29
   7.040000     -4.7607423E-29
   7.050000     -4.7899199E-29
   7.060000     -4.8012952E-29