  -2.600000      0.0000000E+00
  -2.590000      0.0000000E+00
  -2.580000      0.0000000E+00
  -2.570000      0.0000000E+00
  -2.560000      0.0000000E+00
  -2.550000      0.0000000E+00
  -2.540000      0.0000000E+00
  -2.530000      0.0000000E+00
  -2.520000      0.0000000E+00
  -2.510000      0.0000000E+00
  -2.500000      0.0000000E+00
  -2.490000      0.0000000E+00
  -2.480000      0.0000000E+00
  -2.470000      0.0000000E+00
  -2.460000      0.0000000E+00
  -2.450000      0.0000000E+00
  -2.440000      0.0000000E+00
  -2.430000      0.0000000E+00
  -2.420000      0.0000000E+00
  -2.410000      0.0000000E+00
  -2.400000      0.0000000E+00
  -2.390000      0.0000000E+00
  -2.380000      0.0000000E+00
  -2.370000      0.0000000E+00
  -2.360000      0.0000000E+00
  -2.350000      0.0000000E+00
  -2.340000      0.0000000E+00
  -2.330000      0.0000000E+00
  -2.320000      0.0000000E+00
  -2.310000      0.0000000E+00
  -2.300000      0.0000000E+00
  -2.290000      0.0000000E+00
  -2.280000      0.0000000E+00
  -2.270000      0.0000000E+00
  -2.260000      0.0000000E+00
  -2.250000      0.0000000E+00
  -2.240000      0.0000000E+00
  -2.230000      0.0000000E+00
  -2.220000      0.0000000E+00
  -2.210000      0.0000000E+00
  -2.200000      0.0000000E+00
  -2.190000      0.0000000E+00
  -2.180000      0.0000000E+00
  -2.170000      0.0000000E+00
  -2.160000      0.0000000E+00
  -2.150000      0.0000000E+00
  -2.140000      0.0000000E+00
  -2.130000      0.0000000E+00
  -2.120000      0.0000000E+00
  -2.110000      0.0000000E+00
  -2.100000      0.0000000E+00
  -2.090000      0.0000000E+00
  -2.080000      0.0000000E+00
  -2.070000      0.0000000E+00
  -2.060000      0.0000000E+00
  -2.050000      0.0000000E+00
  -2.040000      0.0000000E+00
  -2.030000      0.0000000E+00
  -2.020000      0.0000000E+00
  -2.010000      0.0000000E+00
  -2.000000      0.0000000E+00
  -1.990000      0.0000000E+00
  -1.980000      0.0000000E+00
  -1.970000      0.0000000E+00
  -1.960000      0.0000000E+00
  -1.950000      0.0000000E+00
  -1.940000      0.0000000E+00
  -1.930000      0.0000000E+00
  -1.920000      0.0000000E+00
  -1.910000      0.0000000E+00
  -1.900000      0.0000000E+00
  -1.890000      0.0000000E+00
  -1.880000      0.0000000E+00
  -1.870000      0.0000000E+00
  -1.860000      0.0000000E+00
  -1.850000      0.0000000E+00
  -1.840000      0.0000000E+00
  -1.830000      0.0000000E+00
  -1.820000      0.0000000E+00
  -1.810000      0.0000000E+00
  -1.800000      0.0000000E+00
  -1.790000      0.0000000E+00
  -1.780000      0.0000000E+00
  -1.770000      0.0000000E+00
  -1.760000      0.0000000E+00
  -1.750000      0.0000000E+00
  -1.740000      0.0000000E+00
  -1.730000      0.0000000E+00
  -1.720000      0.0000000E+00
  -1.710000      0.0000000E+00
  -1.700000      0.0000000E+00
  -1.690000      0.0000000E+00
  -1.680000      0.0000000E+00
  -1.670000      0.0000000E+00
  -1.660000      0.0000000E+00
  -1.650000      0.0000000E+00
  -1.640000      0.0000000E+00
  -1.630000      0.0000000E+00
  -1.620000      0.0000000E+00
  -1.610000      0.0000000E+00
  -1.600000      0.0000000E+00
  -1.590000      0.0000000E+00
  -1.580000      0.0000000E+00
  -1.570000      0.0000000E+00
  -1.560000      0.0000000E+00
  -1.550000      0.0000000E+00
  -1.540000      0.0000000E+00
  -1.530000      0.0000000E+00
  -1.520000      0.0000000E+00
  -1.510000      0.0000000E+00
  -1.500000      0.0000000E+00
  -1.490000      0.0000000E+00
  -1.480000      0.0000000E+00
  -1.470000      0.0000000E+00
  -1.460000      0.0000000E+00
  -1.450000      0.0000000E+00
  -1.440000      0.0000000E+00
  -1.430000      0.0000000E+00
  -1.420000      0.0000000E+00
  -1.410000      0.0000000E+00
  -1.400000      0.0000000E+00
  -1.390000      0.0000000E+00
  -1.380000      0.0000000E+00
  -1.370000      0.0000000E+00
  -1.360000      0.0000000E+00
  -1.350000      0.0000000E+00
  -1.340000      0.0000000E+00
  -1.330000      0.0000000E+00
  -1.320000      0.0000000E+00
  -1.310000      0.0000000E+00
  -1.300000      0.0000000E+00
  -1.290000      0.0000000E+00
  -1.280000      0.0000000E+00
  -1.270000      0.0000000E+00
  -1.260000      0.0000000E+00
  -1.250000      0.0000000E+00
  -1.240000      0.0000000E+00
  -1.230000      0.0000000E+00
  -1.220000      0.0000000E+00
  -1.210000      0.0000000E+00
  -1.200000      0.0000000E+00
  -1.190000      0.0000000E+00
  -1.180000      0.0000000E+00
  -1.170000      0.0000000E+00
  -1.160000      0.0000000E+00
  -1.150000      0.0000000E+00
  -1.140000      0.0000000E+00
  -1.130000      0.0000000E+00
  -1.120000      0.0000000E+00
  -1.110000      0.0000000E+00
  -1.100000      0.0000000E+00
  -1.090000      0.0000000E+00
  -1.080000      0.0000000E+00
  -1.070000      0.0000000E+00
  -1.060000      0.0000000E+00
  -1.050000      0.0000000E+00
  -1.040000      0.0000000E+00
  -1.030000      0.0000000E+00
  -1.020000      0.0000000E+00
  -1.010000      0.0000000E+00
  -1.000000      0.0000000E+00
 -0.9900000      0.0000000E+00
 -0.9800000      0.0000000E+00
 -0.9700000      0.0000000E+00
 -0.9600000      0.0000000E+00
 -0.9500000      0.0000000E+00
 -0.9400000      0.0000000E+00
 -0.9300000      0.0000000E+00
 -0.9200000      0.0000000E+00
 -0.9100000      0.0000000E+00
 -0.9000000      0.0000000E+00
 -0.8900000      0.0000000E+00
 -0.8800000      0.0000000E+00
 -0.8700000      0.0000000E+00
 -0.8600000      0.0000000E+00
 -0.8500000      0.0000000E+00
 -0.8400000      0.0000000E+00
 -0.8300000      0.0000000E+00
 -0.8200000      0.0000000E+00
 -0.8100000      0.0000000E+00
 -0.8000000      0.0000000E+00
 -0.7900000      0.0000000E+00
 -0.7800000      0.0000000E+00
 -0.7700000      0.0000000E+00
 -0.7600000      0.0000000E+00
 -0.7500000      0.0000000E+00
 -0.7400000      0.0000000E+00
 -0.7300000      0.0000000E+00
 -0.7200000      0.0000000E+00
 -0.7100000      0.0000000E+00
 -0.7000000      0.0000000E+00
 -0.6900000      0.0000000E+00
 -0.6800000      0.0000000E+00
 -0.6700000      0.0000000E+00
 -0.6600000      0.0000000E+00
 -0.6500000      0.0000000E+00
 -0.6400000      0.0000000E+00
 -0.6300000      0.0000000E+00
 -0.6200000      0.0000000E+00
 -0.6100000      0.0000000E+00
 -0.6000000      0.0000000E+00
 -0.5900000      0.0000000E+00
 -0.5800000      0.0000000E+00
 -0.5700000      0.0000000E+00
 -0.5600000      0.0000000E+00
 -0.5500000      0.0000000E+00
 -0.5400000      0.0000000E+00
 -0.5300000      0.0000000E+00
 -0.5200000      0.0000000E+00
 -0.5100000      0.0000000E+00
 -0.5000000      0.0000000E+00
 -0.4900000      0.0000000E+00
 -0.4800000      0.0000000E+00
 -0.4700000      0.0000000E+00
 -0.4600000      0.0000000E+00
 -0.4500000      0.0000000E+00
 -0.4400000      0.0000000E+00
 -0.4300000      0.0000000E+00
 -0.4200000      0.0000000E+00
 -0.4100000      0.0000000E+00
 -0.4000000      0.0000000E+00
 -0.3900000      0.0000000E+00
 -0.3800000      0.0000000E+00
 -0.3700000      0.0000000E+00
 -0.3600000      0.0000000E+00
 -0.3500000      0.0000000E+00
 -0.3400000      0.0000000E+00
 -0.3300000      0.0000000E+00
 -0.3200000      0.0000000E+00
 -0.3100000      0.0000000E+00
 -0.3000000      0.0000000E+00
 -0.2900000      0.0000000E+00
 -0.2800000      0.0000000E+00
 -0.2700000      0.0000000E+00
 -0.2600000      0.0000000E+00
 -0.2500000      0.0000000E+00
 -0.2400000      0.0000000E+00
 -0.2300000      0.0000000E+00
 -0.2200000      0.0000000E+00
 -0.2100000      0.0000000E+00
 -0.2000000      0.0000000E+00
 -0.1900000      0.0000000E+00
 -0.1800000      0.0000000E+00
 -0.1700000      0.0000000E+00
 -0.1600000      0.0000000E+00
 -0.1500000      0.0000000E+00
 -0.1400000      0.0000000E+00
 -0.1300000      0.0000000E+00
 -0.1200000      0.0000000E+00
 -0.1100000      0.0000000E+00
 -0.1000000      0.0000000E+00
 -9.0000004E-02  0.0000000E+00
 -7.9999998E-02  0.0000000E+00
 -7.0000000E-02  0.0000000E+00
 -5.9999999E-02  0.0000000E+00
 -5.0000001E-02  0.0000000E+00
 -3.9999999E-02  0.0000000E+00
 -2.9999999E-02  0.0000000E+00
 -2.0000000E-02  0.0000000E+00
 -9.9999998E-03  0.0000000E+00
 -3.4694470E-17  0.0000000E+00
  9.9999998E-03  0.0000000E+00
  2.0000000E-02  0.0000000E+00
  2.9999999E-02  0.0000000E+00
  3.9999999E-02  0.0000000E+00
  5.0000001E-02  0.0000000E+00
  5.9999999E-02  0.0000000E+00
  7.0000000E-02  0.0000000E+00
  7.9999998E-02  0.0000000E+00
  9.0000004E-02  0.0000000E+00
  0.1000000      0.0000000E+00
  0.1100000      0.0000000E+00
  0.1200000      0.0000000E+00
  0.1300000      0.0000000E+00
  0.1400000      0.0000000E+00
  0.1500000      0.0000000E+00
  0.1600000      0.0000000E+00
  0.1700000      0.0000000E+00
  0.1800000      0.0000000E+00
  0.1900000      0.0000000E+00
  0.2000000      0.0000000E+00
  0.2100000      0.0000000E+00
  0.2200000      0.0000000E+00
  0.2300000      0.0000000E+00
  0.2400000      0.0000000E+00
  0.2500000      0.0000000E+00
  0.2600000      0.0000000E+00
  0.2700000      0.0000000E+00
  0.2800000      0.0000000E+00
  0.2900000      0.0000000E+00
  0.3000000      0.0000000E+00
  0.3100000      0.0000000E+00
  0.3200000      0.0000000E+00
  0.3300000      0.0000000E+00
  0.3400000      0.0000000E+00
  0.3500000      0.0000000E+00
  0.3600000      0.0000000E+00
  0.3700000      0.0000000E+00
  0.3800000      0.0000000E+00
  0.3900000      0.0000000E+00
  0.4000000      0.0000000E+00
  0.4100000      0.0000000E+00
  0.4200000      0.0000000E+00
  0.4300000      0.0000000E+00
  0.4400000      0.0000000E+00
  0.4500000      0.0000000E+00
  0.4600000      0.0000000E+00
  0.4700000      0.0000000E+00
  0.4800000      0.0000000E+00
  0.4900000      0.0000000E+00
  0.5000000      0.0000000E+00
  0.5100000      0.0000000E+00
  0.5200000      0.0000000E+00
  0.5300000      0.0000000E+00
  0.5400000      0.0000000E+00
  0.5500000      0.0000000E+00
  0.5600000      0.0000000E+00
  0.5700000      0.0000000E+00
  0.5800000      0.0000000E+00
  0.5900000      0.0000000E+00
  0.6000000      0.0000000E+00
  0.6100000      0.0000000E+00
  0.6200000      0.0000000E+00
  0.6300000      0.0000000E+00
  0.6400000      0.0000000E+00
  0.6500000      0.0000000E+00
  0.6600000      0.0000000E+00
  0.6700000      0.0000000E+00
  0.6800000      0.0000000E+00
  0.6900000      0.0000000E+00
  0.7000000      0.0000000E+00
  0.7100000      1.4708429E-38
  0.7200000      2.0608821E-38
  0.7300000      2.6979836E-38
  0.7400000      3.3826288E-38
  0.7500000      4.0496718E-38
  0.7600000      4.7100702E-38
  0.7700000      5.4447177E-38
  0.7800000      6.0661359E-38
  0.7900000      6.5656012E-38
  0.8000000      7.0630398E-38
  0.8100000      7.3706472E-38
  0.8200000      7.5208602E-38
  0.8300000      7.5052626E-38
  0.8400000      7.2027918E-38
  0.8500000      6.5378140E-38
  0.8600000      5.5785378E-38
  0.8700000      4.4961180E-38
  0.8800000      3.1954793E-38
  0.8900000      1.4151050E-38
  0.9000000      0.0000000E+00
  0.9100000     -3.5015203E-38
  0.9200000     -6.4802549E-38
  0.9300000     -9.8189387E-38
  0.9400000     -1.3644695E-37
  0.9500000     -1.8056962E-37
  0.9600000     -2.3084798E-37
  0.9700000     -2.8707772E-37
  0.9800000     -3.5475308E-37
  0.9900000     -4.3593516E-37
   1.000000     -5.2432903E-37
   1.010000     -6.1386222E-37
   1.020000     -7.0067354E-37
   1.030000     -7.8825025E-37
   1.040000     -8.7804115E-37
   1.050000     -9.6594512E-37
   1.060000     -1.0574126E-36
   1.070000     -1.1456312E-36
   1.080000     -1.2253749E-36
   1.090000     -1.3036650E-36
   1.100000     -1.3687897E-36
   1.110000     -1.4122866E-36
   1.120000     -1.4405149E-36
   1.130000     -1.4626706E-36
   1.140000     -1.4780016E-36
   1.150000     -1.4768588E-36
   1.160000     -1.4348790E-36
   1.170000     -1.3399058E-36
   1.180000     -1.2065914E-36
   1.190000     -1.0461178E-36
   1.200000     -8.9794416E-37
   1.210000     -7.6156531E-37
   1.220000     -4.2855626E-37
   1.230000      3.4024778E-37
   1.240000      1.3832038E-36
   1.250000      2.5196794E-36
   1.260000      3.7146795E-36
   1.270000      4.9443137E-36
   1.280000      5.9775240E-36
   1.290000      6.7584339E-36
   1.300000      7.5334853E-36
   1.310000      8.3079807E-36
   1.320000      9.0493041E-36
   1.330000      9.7289255E-36
   1.340000      1.0141957E-35
   1.350000      1.0291457E-35
   1.360000      1.0350256E-35
   1.370000      1.0334236E-35
   1.380000      1.0406161E-35
   1.390000      1.0610835E-35
   1.400000      1.0862548E-35
   1.410000      1.0912478E-35
   1.420000      1.0361612E-35
   1.430000      9.3845244E-36
   1.440000      8.2704214E-36
   1.450000      7.0329051E-36
   1.460000      5.4666650E-36
   1.470000      3.4568929E-36
   1.480000      1.1199973E-36
   1.490000     -1.4450429E-36
   1.500000     -4.3994411E-36
   1.510000     -7.7260586E-36
   1.520000     -1.1215979E-35
   1.530000     -1.4972034E-35
   1.540000     -1.9011265E-35
   1.550000     -2.3225910E-35
   1.560000     -2.7710173E-35
   1.570000     -3.2455824E-35
   1.580000     -3.7254722E-35
   1.590000     -4.2057859E-35
   1.600000     -4.6746942E-35
   1.610000     -5.1492387E-35
   1.620000     -5.6290332E-35
   1.630000     -6.1016508E-35
   1.640000     -6.5512332E-35
   1.650000     -7.0312195E-35
   1.660000     -7.5524312E-35
   1.670000     -7.9902042E-35
   1.680000     -8.3139610E-35
   1.690000     -8.5977138E-35
   1.700000     -8.8317215E-35
   1.710000     -8.9730294E-35
   1.720000     -9.0132424E-35
   1.730000     -8.9266547E-35
   1.740000     -8.7061049E-35
   1.750000     -8.3303921E-35
   1.760000     -7.7409776E-35
   1.770000     -6.8477626E-35
   1.780000     -5.6525362E-35
   1.790000     -4.1984023E-35
   1.800000     -2.2530509E-35
   1.810000      1.7473570E-36
   1.820000      2.8735008E-35
   1.830000      5.8500520E-35
   1.840000      9.3733489E-35
   1.850000      1.3217645E-34
   1.860000      1.6748065E-34
   1.870000      2.0041935E-34
   1.880000      2.3282541E-34
   1.890000      2.6509579E-34
   1.900000      2.9482459E-34
   1.910000      3.1915960E-34
   1.920000      3.4151263E-34
   1.930000      3.7074704E-34
   1.940000      4.0495087E-34
   1.950000      4.3717232E-34
   1.960000      4.6828352E-34
   1.970000      5.0201842E-34
   1.980000      5.3827673E-34
   1.990000      5.7227060E-34
   2.000000      6.0376411E-34
   2.010000      6.3384272E-34
   2.020000      6.6251991E-34
   2.030000      6.9171428E-34
   2.040000      7.1747092E-34
   2.050000      7.3597159E-34
   2.060000      7.4778866E-34
   2.070000      7.5067505E-34
   2.080000      7.4238364E-34
   2.090000      7.2366045E-34
   2.100000      6.9461403E-34
   2.110000      6.5098822E-34
   2.120000      5.9387527E-34
   2.130000      5.2193588E-34
   2.140000      4.3398590E-34
   2.150000      3.2877282E-34
   2.160000      2.0179872E-34
   2.170000      5.7113609E-35
   2.180000     -1.0419720E-34
   2.190000     -2.8784789E-34
   2.200000     -4.9514196E-34
   2.210000     -7.2269682E-34
   2.220000     -9.6970845E-34
   2.230000     -1.2366082E-33
   2.240000     -1.5228595E-33
   2.250000     -1.8278236E-33
   2.260000     -2.1499838E-33
   2.270000     -2.4878477E-33
   2.280000     -2.8398955E-33
   2.290000     -3.2044931E-33
   2.300000     -3.5800345E-33
   2.310000     -3.9635517E-33
   2.320000     -4.3509968E-33
   2.330000     -4.7387461E-33
   2.340000     -5.1230986E-33
   2.350000     -5.5020251E-33
   2.360000     -5.8725009E-33
   2.370000     -6.2288410E-33
   2.380000     -6.5649986E-33
   2.390000     -6.8787138E-33
   2.400000     -7.1664153E-33
   2.410000     -7.4206189E-33
   2.420000     -7.6352950E-33
   2.430000     -7.8042091E-33
   2.440000     -7.9213515E-33
   2.450000     -7.9798331E-33
   2.460000     -7.9719904E-33
   2.470000     -7.8908254E-33
   2.480000     -7.7290781E-33
   2.490000     -7.4789653E-33
   2.500000     -7.1325985E-33
   2.510000     -6.6822093E-33
   2.520000     -6.1196019E-33
   2.530000     -5.4378920E-33
   2.540000     -4.6307458E-33
   2.550000     -3.6910534E-33
   2.560000     -2.6128690E-33
   2.570000     -1.3912735E-33
   2.580000     -2.1368539E-35
   2.590000      1.5005787E-33
   2.600000      3.1766636E-33
   2.610000      5.0083579E-33
   2.620000      6.9956497E-33
   2.630000      9.1372395E-33
   2.640000      1.1430212E-32
   2.650000      1.3870059E-32
   2.660000      1.6450705E-32
   2.670000      1.9164212E-32
   2.680000      2.2000745E-32
   2.690000      2.4948510E-32
   2.700000      2.7993654E-32
   2.710000      3.1120743E-32
   2.720000      3.4310937E-32
   2.730000      3.7544261E-32
   2.740000      4.0799411E-32
   2.750000      4.4051422E-32
   2.760000      4.7273713E-32
   2.770000      5.0437547E-32
   2.780000      5.3512047E-32
   2.790000      5.6464242E-32
   2.800000      5.9259068E-32
   2.810000      6.1859450E-32
   2.820000      6.4226378E-32
   2.830000      6.6318964E-32
   2.840000      6.8094554E-32
   2.850000      6.9508938E-32
   2.860000      7.0516472E-32
   2.870000      7.1070265E-32
   2.880000      7.1122486E-32
   2.890000      7.0624623E-32
   2.900000      6.9527858E-32
   2.910000      6.7783401E-32
   2.920000      6.5342951E-32
   2.930000      6.2159160E-32
   2.940000      5.8186136E-32
   2.950000      5.3380204E-32
   2.960000      4.7699721E-32
   2.970000      4.1106256E-32
   2.980000      3.3565624E-32
   2.990000      2.5047810E-32
   3.000000      1.5527847E-32
   3.010000      4.9864470E-33
   3.020000     -6.5893497E-33
   3.030000     -1.9205538E-32
   3.040000     -3.2860483E-32
   3.050000     -4.7544324E-32
   3.060000     -6.3238352E-32
   3.070000     -7.9914438E-32
   3.080000     -9.7534463E-32
   3.090000     -1.1604979E-31
   3.100000     -1.3540069E-31
   3.110000     -1.5551605E-31
   3.120000     -1.7631279E-31
   3.130000     -1.9769558E-31
   3.140000     -2.1955644E-31
   3.150000     -2.4177448E-31
   3.160000     -2.6421563E-31
   3.170000     -2.8673258E-31
   3.180000     -3.0916449E-31
   3.190000     -3.3133713E-31
   3.200000     -3.5306276E-31
   3.210000     -3.7414034E-31
   3.220000     -3.9435571E-31
   3.230000     -4.1348192E-31
   3.240000     -4.3127971E-31
   3.250000     -4.4749791E-31
   3.260000     -4.6187425E-31
   3.270000     -4.7413645E-31
   3.280000     -4.8400284E-31
   3.290000     -4.9118403E-31
   3.300000     -4.9538402E-31
   3.310000     -4.9630190E-31
   3.320000     -4.9363376E-31
   3.330000     -4.8707459E-31
   3.340000     -4.7632066E-31
   3.350000     -4.6107186E-31
   3.360000     -4.4103424E-31
   3.370000     -4.1592296E-31
   3.380000     -3.8546507E-31
   3.390000     -3.4940265E-31
   3.400000     -3.0749595E-31
   3.410000     -2.5952679E-31
   3.420000     -2.0530190E-31
   3.430000     -1.4465625E-31
   3.440000     -7.7456673E-32
   3.450000     -3.6052808E-33
   3.460000      7.6956912E-32
   3.470000      1.6424656E-31
   3.480000      2.5823443E-31
   3.490000      3.5884196E-31
   3.500000      4.6593770E-31
   3.510000      5.7933416E-31
   3.520000      6.9878432E-31
   3.530000      8.2397838E-31
   3.540000      9.5454063E-31
   3.550000      1.0900267E-30
   3.560000      1.2299203E-30
   3.570000      1.3736305E-30
   3.580000      1.5204897E-30
   3.590000      1.6697504E-30
   3.600000      1.8205838E-30
   3.610000      1.9720780E-30
   3.620000      2.1232362E-30
   3.630000      2.2729759E-30
   3.640000      2.4201285E-30
   3.650000      2.5634385E-30
   3.660000      2.7015653E-30
   3.670000      2.8330836E-30
   3.680000      2.9564851E-30
   3.690000      3.0701813E-30
   3.700000      3.1725073E-30
   3.710000      3.2617264E-30
   3.720000      3.3360345E-30
   3.730000      3.3935668E-30
   3.740000      3.4324048E-30
   3.750000      3.4505856E-30
   3.760000      3.4461093E-30
   3.770000      3.4169514E-30
   3.780000      3.3610720E-30
   3.790000      3.2764281E-30
   3.800000      3.1609878E-30
   3.810000      3.0127429E-30
   3.820000      2.8297250E-30
   3.830000      2.6100193E-30
   3.840000      2.3517816E-30
   3.850000      2.0532565E-30
   3.860000      1.7127921E-30
   3.870000      1.3288613E-30
   3.880000      9.0007856E-31
   3.890000      4.2522008E-31
   3.900000     -9.6755857E-32
   3.910000     -6.6668825E-31
   3.920000     -1.2851929E-30
   3.930000     -1.9526404E-30
   3.940000     -2.6691333E-30
   3.950000     -3.4344857E-30
   3.960000     -4.2481975E-30
   3.970000     -5.1094327E-30
   3.980000     -6.0169967E-30
   3.990000     -6.9693100E-30
   4.000000     -7.9643876E-30
   4.010000     -8.9998135E-30
   4.020000     -1.0072720E-29
   4.030000     -1.1179764E-29
   4.040000     -1.2317104E-29
   4.050000     -1.3480380E-29
   4.060000     -1.4664697E-29
   4.070000     -1.5864606E-29
   4.080000     -1.7074084E-29
   4.090000     -1.8286527E-29
   4.100000     -1.9494735E-29
   4.110000     -2.0690908E-29
   4.120000     -2.1866629E-29
   4.130000     -2.3012881E-29
   4.140000     -2.4120029E-29
   4.150000     -2.5177839E-29
   4.160000     -2.6175473E-29
   4.170000     -2.7101521E-29
   4.180000     -2.7943998E-29
   4.190000     -2.8690380E-29
   4.200000     -2.9327631E-29
   4.210000     -2.9842212E-29
   4.220000     -3.0220140E-29
   4.230000     -3.0447026E-29
   4.240000     -3.0508097E-29
   4.250000     -3.0388265E-29
   4.260000     -3.0072177E-29
   4.270000     -2.9544271E-29
   4.280000     -2.8788840E-29
   4.290000     -2.7790101E-29
   4.300000     -2.6532276E-29
   4.310000     -2.4999666E-29
   4.320000     -2.3176743E-29
   4.330000     -2.1048239E-29
   4.340000     -1.8599244E-29
   4.350000     -1.5815314E-29
   4.360000     -1.2682584E-29
   4.370000     -9.1878850E-30
   4.380000     -5.3188735E-30
   4.390000     -1.0641597E-30
   4.400000      3.5865525E-30
   4.410000      8.6423187E-30
   4.420000      1.4110807E-29
   4.430000      1.9998140E-29
   4.440000      2.6308733E-29
   4.450000      3.3045124E-29
   4.460000      4.0207805E-29
   4.470000      4.7795057E-29
   4.480000      5.5802767E-29
   4.490000      6.4224251E-29
   4.500000      7.3050089E-29
   4.510000      8.2267933E-29
   4.520000      9.1862332E-29
   4.530000      1.0181459E-28
   4.540000      1.1210253E-28
   4.550000      1.2270044E-28
   4.560000      1.3357878E-28
   4.570000      1.4470413E-28
   4.580000      1.5603898E-28
   4.590000      1.6754165E-28
   4.600000      1.7916612E-28
   4.610000      1.9086190E-28
   4.620000      2.0257396E-28
   4.630000      2.1424261E-28
   4.640000      2.2580339E-28
   4.650000      2.3718706E-28
   4.660000      2.4831949E-28
   4.670000      2.5912157E-28
   4.680000      2.6950934E-28
   4.690000      2.7939384E-28
   4.700000      2.8868123E-28
   4.710000      2.9727270E-28
   4.720000      3.0506470E-28
   4.730000      3.1194892E-28
   4.740000      3.1781239E-28
   4.750000      3.2253777E-28
   4.760000      3.2600341E-28
   4.770000      3.2808361E-28
   4.780000      3.2864885E-28
   4.790000      3.2756619E-28
   4.800000      3.2469953E-28
   4.810000      3.1990996E-28
   4.820000      3.1305630E-28
   4.830000      3.0399550E-28
   4.840000      2.9258316E-28
   4.850000      2.7867417E-28
   4.860000      2.6212325E-28
   4.870000      2.4278569E-28
   4.880000      2.2051802E-28
   4.890000      1.9517878E-28
   4.900000      1.6662936E-28
   4.910000      1.3473487E-28
   4.920000      9.9365003E-29
   4.930000      6.0395081E-29
   4.940000      1.7706943E-29
   4.950000     -2.8809836E-29
   4.960000     -7.9256940E-29
   4.970000     -1.3372627E-28
   4.980000     -1.9229858E-28
   4.990000     -2.5504228E-28
   5.000000     -3.2201212E-28
   5.010000     -3.9324800E-28
   5.020000     -4.6877356E-28
   5.030000     -5.4859474E-28
   5.040000     -6.3269837E-28
   5.050000     -7.2105060E-28
   5.060000     -8.1359572E-28
   5.070000     -9.1025400E-28
   5.080000     -1.0109209E-27
   5.090000     -1.1154652E-27
   5.100000     -1.2237270E-27
   5.110000     -1.3355167E-27
   5.120000     -1.4506132E-27
   5.130000     -1.5687625E-27
   5.140000     -1.6896757E-27
   5.150000     -1.8130279E-27
   5.160000     -1.9384564E-27
   5.170000     -2.0655599E-27
   5.180000     -2.1938959E-27
   5.190000     -2.3229808E-27
   5.200000     -2.4522874E-27
   5.210000     -2.5812447E-27
   5.220000     -2.7092365E-27
   5.230000     -2.8356000E-27
   5.240000     -2.9596258E-27
   5.250000     -3.0805571E-27
   5.260000     -3.1975891E-27
   5.270000     -3.3098682E-27
   5.280000     -3.4164923E-27
   5.290000     -3.5165104E-27
   5.300000     -3.6089250E-27
   5.310000     -3.6926883E-27
   5.320000     -3.7667080E-27
   5.330000     -3.8298434E-27
   5.340000     -3.8809102E-27
   5.350000     -3.9186796E-27
   5.360000     -3.9418817E-27
   5.370000     -3.9492076E-27
   5.380000     -3.9393102E-27
   5.390000     -3.9108084E-27
   5.400000     -3.8622888E-27
   5.410000     -3.7923117E-27
   5.420000     -3.6994121E-27
   5.430000     -3.5821053E-27
   5.440000     -3.4388912E-27
   5.450000     -3.2682607E-27
   5.460000     -3.0686988E-27
   5.470000     -2.8386927E-27
   5.480000     -2.5767379E-27
   5.490000     -2.2813453E-27
   5.500000     -1.9510472E-27
   5.510000     -1.5844081E-27
   5.520000     -1.1800312E-27
   5.530000     -7.3656767E-28
   5.540000     -2.5272633E-28
   5.550000      2.7271592E-28
   5.560000      8.4090367E-28
   5.570000      1.4528927E-27
   5.580000      2.1096369E-27
   5.590000      2.8119777E-27
   5.600000      3.5606312E-27
   5.610000      4.3561743E-27
   5.620000      5.1990336E-27
   5.630000      6.0894689E-27
   5.640000      7.0275604E-27
   5.650000      8.0131959E-27
   5.660000      9.0460529E-27
   5.670000      1.0125587E-26
   5.680000      1.1251015E-26
   5.690000      1.2421299E-26
   5.700000      1.3635129E-26
   5.710000      1.4890913E-26
   5.720000      1.6186756E-26
   5.730000      1.7520445E-26
   5.740000      1.8889435E-26
   5.750000      2.0290834E-26
   5.760000      2.1721384E-26
   5.770000      2.3177450E-26
   5.780000      2.4655002E-26
   5.790000      2.6149605E-26
   5.800000      2.7656400E-26
   5.810000      2.9170092E-26
   5.820000      3.0684942E-26
   5.830000      3.2194754E-26
   5.840000      3.3692859E-26
   5.850000      3.5172109E-26
   5.860000      3.6624877E-26
   5.870000      3.8043039E-26
   5.880000      3.9417968E-26
   5.890000      4.0740543E-26
   5.900000      4.2001142E-26
   5.910000      4.3189635E-26
   5.920000      4.4295390E-26
   5.930000      4.5307289E-26
   5.940000      4.6213712E-26
   5.950000      4.7002570E-26
   5.960000      4.7661300E-26
   5.970000      4.8176894E-26
   5.980000      4.8535909E-26
   5.990000      4.8724478E-26
   6.000000      4.8728354E-26
   6.010000      4.8532938E-26
   6.020000      4.8123285E-26
   6.030000      4.7484157E-26
   6.040000      4.6600063E-26
   6.050000      4.5455299E-26
   6.060000      4.4033985E-26
   6.070000      4.2320132E-26
   6.080000      4.0297687E-26
   6.090000      3.7950591E-26
   6.100000      3.5262853E-26
   6.110000      3.2218599E-26
   6.120000      2.8802168E-26
   6.130000      2.4998172E-26
   6.140000      2.0791588E-26
   6.150000      1.6167846E-26
   6.160000      1.1112909E-26
   6.170000      5.6133817E-27
   6.180000     -3.4339288E-28
   6.190000     -6.7692170E-27
   6.200000     -1.3674942E-26
   6.210000     -2.1070361E-26
   6.220000     -2.8964057E-26
   6.230000     -3.7363297E-26
   6.240000     -4.6273924E-26
   6.250000     -5.5700199E-26
   6.260000     -6.5644678E-26
   6.270000     -7.6108061E-26
   6.280000     -8.7089067E-26
   6.290000     -9.8584280E-26
   6.300000     -1.1058801E-25
   6.310000     -1.2309214E-25
   6.320000     -1.3608598E-25
   6.330000     -1.4955612E-25
   6.340000     -1.6348631E-25
   6.350000     -1.7785720E-25
   6.360000     -1.9264635E-25
   6.370000     -2.0782797E-25
   6.380000     -2.2337279E-25
   6.390000     -2.3924800E-25
   6.400000     -2.5541699E-25
   6.410000     -2.7183930E-25
   6.420000     -2.8847048E-25
   6.430000     -3.0526195E-25
   6.440000     -3.2216086E-25
   6.450000     -3.3911008E-25
   6.460000     -3.5604801E-25
   6.470000     -3.7290843E-25
   6.480000     -3.8962064E-25
   6.490000     -4.0610927E-25
   6.500000     -4.2229410E-25
   6.510000     -4.3809026E-25
   6.520000     -4.5340801E-25
   6.530000     -4.6815300E-25
   6.540000     -4.8222599E-25
   6.550000     -4.9552298E-25
   6.560000     -5.0793541E-25
   6.570000     -5.1934998E-25
   6.580000     -5.2964890E-25
   6.590000     -5.3871006E-25
   6.600000     -5.4640717E-25
   6.610000     -5.5260974E-25
   6.620000     -5.5718355E-25
   6.630000     -5.5999081E-25
   6.640000     -5.6089021E-25
   6.650000     -5.5973754E-25
   6.660000     -5.5638582E-25
   6.670000     -5.5068560E-25
   6.680000     -5.4248559E-25
   6.690000     -5.3163299E-25
   6.700000     -5.1797381E-25
   6.710000     -5.0135350E-25
   6.720000     -4.8161758E-25
   6.730000     -4.5861198E-25
   6.740000     -4.3218386E-25
   6.750000     -4.0218219E-25
   6.760000     -3.6845854E-25
   6.770000     -3.3086754E-25
   6.780000     -2.8926805E-25
   6.790000     -2.4352363E-25
   6.800000     -1.9350362E-25
   6.810000     -1.3908381E-25
   6.820000     -8.0147627E-26
   6.830000     -1.6586805E-26
   6.840000      5.1697371E-26
   6.850000      1.2479321E-25
   6.860000      2.0277753E-25
   6.870000      2.8571455E-25
   6.880000      3.7365481E-25
   6.890000      4.6663400E-25
   6.900000      5.6467171E-25
   6.910000      6.6777036E-25
   6.920000      7.7591397E-25
   6.930000      8.8906675E-25
   6.940000      1.0071724E-24
   6.950000      1.1301522E-24
   6.960000      1.2579043E-24
   6.970000      1.3903024E-24
   6.980000      1.5271942E-24
   6.990000      1.6684006E-24
   7.000000      1.8137143E-24
   7.010000      1.9628985E-24
   7.020000      2.1156863E-24
   7.030000      2.2717786E-24
   7.040000      2.4308441E-24
   7.050000      2.5925178E-24
   7.060000      2.7563997E-24