  -2.600000      0.0000000E+00
  -2.590000      0.0000000E+00
  -2.580000      0.0000000E+00
  -2.570000      0.0000000E+00
  -2.560000      0.0000000E+00
  -2.550000      0.0000000E+00
  -2.540000      0.0000000E+00
  -2.530000      0.0000000E+00
  -2.520000      0.0000000E+00
  -2.510000      0.0000000E+00
  -2.500000      0.0000000E+00
  -2.490000      0.0000000E+00
  -2.480000      0.0000000E+00
  -2.470000      0.0000000E+00
  -2.460000      0.0000000E+00
  -2.450000      0.0000000E+00
  -2.440000      0.0000000E+00
  -2.430000      0.0000000E+00
  -2.420000      0.0000000E+00
  -2.410000      0.0000000E+00
  -2.400000      0.0000000E+00
  -2.390000      0.0000000E+00
  -2.380000      0.0000000E+00
  -2.370000      0.0000000E+00
  -2.360000      0.0000000E+00
  -2.350000      0.0000000E+00
  -2.340000      0.0000000E+00
  -2.330000      0.0000000E+00
  -2.320000      0.0000000E+00
  -2.310000      0.0000000E+00
  -2.300000      0.0000000E+00
  -2.290000      0.0000000E+00
  -2.280000      0.0000000E+00
  -2.270000      0.0000000E+00
  -2.260000      0.0000000E+00
  -2.250000      0.0000000E+00
  -2.240000      0.0000000E+00
  -2.230000      0.0000000E+00
  -2.220000      0.0000000E+00
  -2.210000      0.0000000E+00
  -2.200000      0.0000000E+00
  -2.190000      0.0000000E+00
  -2.180000      0.0000000E+00
  -2.170000      0.0000000E+00
  -2.160000      0.0000000E+00
  -2.150000      0.0000000E+00
  -2.140000      0.0000000E+00
  -2.130000      0.0000000E+00
  -2.120000      0.0000000E+00
  -2.110000      0.0000000E+00
  -2.100000      0.0000000E+00
  -2.090000      0.0000000E+00
  -2.080000      0.0000000E+00
  -2.070000      0.0000000E+00
  -2.060000      0.0000000E+00
  -2.050000      0.0000000E+00
  -2.040000      0.0000000E+00
  -2.030000      0.0000000E+00
  -2.020000      0.0000000E+00
  -2.010000      0.0000000E+00
  -2.000000      0.0000000E+00
  -1.990000      0.0000000E+00
  -1.980000      0.0000000E+00
  -1.970000      0.0000000E+00
  -1.960000      0.0000000E+00
  -1.950000      0.0000000E+00
  -1.940000      0.0000000E+00
  -1.930000      0.0000000E+00
  -1.920000      0.0000000E+00
  -1.910000      0.0000000E+00
  -1.900000      0.0000000E+00
  -1.890000      0.0000000E+00
  -1.880000      0.0000000E+00
  -1.870000      0.0000000E+00
  -1.860000      0.0000000E+00
  -1.850000      0.0000000E+00
  -1.840000      0.0000000E+00
  -1.830000      0.0000000E+00
  -1.820000      0.0000000E+00
  -1.810000      0.0000000E+00
  -1.800000      0.0000000E+00
  -1.790000      0.0000000E+00
  -1.780000      0.0000000E+00
  -1.770000      0.0000000E+00
  -1.760000      0.0000000E+00
  -1.750000      0.0000000E+00
  -1.740000      0.0000000E+00
  -1.730000      0.0000000E+00
  -1.720000      0.0000000E+00
  -1.710000      0.0000000E+00
  -1.700000      0.0000000E+00
  -1.690000      0.0000000E+00
  -1.680000      0.0000000E+00
  -1.670000      0.0000000E+00
  -1.660000      0.0000000E+00
  -1.650000      0.0000000E+00
  -1.640000      0.0000000E+00
  -1.630000      0.0000000E+00
  -1.620000      0.0000000E+00
  -1.610000      0.0000000E+00
  -1.600000      0.0000000E+00
  -1.590000      0.0000000E+00
  -1.580000      0.0000000E+00
  -1.570000      0.0000000E+00
  -1.560000      0.0000000E+00
  -1.550000      0.0000000E+00
  -1.540000      0.0000000E+00
  -1.530000      0.0000000E+00
  -1.520000      0.0000000E+00
  -1.510000      0.0000000E+00
  -1.500000      0.0000000E+00
  -1.490000      0.0000000E+00
  -1.480000      0.0000000E+00
  -1.470000      0.0000000E+00
  -1.460000      0.0000000E+00
  -1.450000      0.0000000E+00
  -1.440000      0.0000000E+00
  -1.430000      0.0000000E+00
  -1.420000      0.0000000E+00
  -1.410000      0.0000000E+00
  -1.400000      0.0000000E+00
  -1.390000      0.0000000E+00
  -1.380000      0.0000000E+00
  -1.370000      0.0000000E+00
  -1.360000      0.0000000E+00
  -1.350000      0.0000000E+00
  -1.340000      0.0000000E+00
  -1.330000      0.0000000E+00
  -1.320000      0.0000000E+00
  -1.310000      0.0000000E+00
  -1.300000      0.0000000E+00
  -1.290000      0.0000000E+00
  -1.280000      0.0000000E+00
  -1.270000      0.0000000E+00
  -1.260000      0.0000000E+00
  -1.250000      0.0000000E+00
  -1.240000      0.0000000E+00
  -1.230000      0.0000000E+00
  -1.220000      0.0000000E+00
  -1.210000      0.0000000E+00
  -1.200000      0.0000000E+00
  -1.190000      0.0000000E+00
  -1.180000      0.0000000E+00
  -1.170000      0.0000000E+00
  -1.160000      0.0000000E+00
  -1.150000      0.0000000E+00
  -1.140000      0.0000000E+00
  -1.130000      0.0000000E+00
  -1.120000      0.0000000E+00
  -1.110000      0.0000000E+00
  -1.100000      0.0000000E+00
  -1.090000      0.0000000E+00
  -1.080000      0.0000000E+00
  -1.070000      0.0000000E+00
  -1.060000      0.0000000E+00
  -1.050000      0.0000000E+00
  -1.040000      0.0000000E+00
  -1.030000      0.0000000E+00
  -1.020000      0.0000000E+00
  -1.010000      0.0000000E+00
  -1.000000      0.0000000E+00
 -0.9900000      0.0000000E+00
 -0.9800000      0.0000000E+00
 -0.9700000      0.0000000E+00
 -0.9600000      0.0000000E+00
 -0.9500000      0.0000000E+00
 -0.9400000      0.0000000E+00
 -0.9300000      0.0000000E+00
 -0.9200000      0.0000000E+00
 -0.9100000      0.0000000E+00
 -0.9000000      0.0000000E+00
 -0.8900000      0.0000000E+00
 -0.8800000      0.0000000E+00
 -0.8700000      0.0000000E+00
 -0.8600000      0.0000000E+00
 -0.8500000      0.0000000E+00
 -0.8400000      0.0000000E+00
 -0.8300000      0.0000000E+00
 -0.8200000      0.0000000E+00
 -0.8100000      0.0000000E+00
 -0.8000000      0.0000000E+00
 -0.7900000      0.0000000E+00
 -0.7800000      0.0000000E+00
 -0.7700000      0.0000000E+00
 -0.7600000      0.0000000E+00
 -0.7500000      0.0000000E+00
 -0.7400000      0.0000000E+00
 -0.7300000      0.0000000E+00
 -0.7200000      0.0000000E+00
 -0.7100000      0.0000000E+00
 -0.7000000      0.0000000E+00
 -0.6900000      0.0000000E+00
 -0.6800000      0.0000000E+00
 -0.6700000      0.0000000E+00
 -0.6600000      0.0000000E+00
 -0.6500000      0.0000000E+00
 -0.6400000      0.0000000E+00
 -0.6300000      0.0000000E+00
 -0.6200000      0.0000000E+00
 -0.6100000      0.0000000E+00
 -0.6000000      0.0000000E+00
 -0.5900000      0.0000000E+00
 -0.5800000      0.0000000E+00
 -0.5700000      0.0000000E+00
 -0.5600000      0.0000000E+00
 -0.5500000      0.0000000E+00
 -0.5400000      0.0000000E+00
 -0.5300000      0.0000000E+00
 -0.5200000      0.0000000E+00
 -0.5100000      0.0000000E+00
 -0.5000000      0.0000000E+00
 -0.4900000      0.0000000E+00
 -0.4800000      0.0000000E+00
 -0.4700000      0.0000000E+00
 -0.4600000      0.0000000E+00
 -0.4500000      0.0000000E+00
 -0.4400000      0.0000000E+00
 -0.4300000      0.0000000E+00
 -0.4200000      0.0000000E+00
 -0.4100000      0.0000000E+00
 -0.4000000      0.0000000E+00
 -0.3900000      0.0000000E+00
 -0.3800000      0.0000000E+00
 -0.3700000      0.0000000E+00
 -0.3600000      0.0000000E+00
 -0.3500000      0.0000000E+00
 -0.3400000      0.0000000E+00
 -0.3300000      0.0000000E+00
 -0.3200000      0.0000000E+00
 -0.3100000      0.0000000E+00
 -0.3000000      0.0000000E+00
 -0.2900000      0.0000000E+00
 -0.2800000      0.0000000E+00
 -0.2700000      0.0000000E+00
 -0.2600000      0.0000000E+00
 -0.2500000      0.0000000E+00
 -0.2400000      0.0000000E+00
 -0.2300000      0.0000000E+00
 -0.2200000      0.0000000E+00
 -0.2100000      0.0000000E+00
 -0.2000000      0.0000000E+00
 -0.1900000      0.0000000E+00
 -0.1800000      0.0000000E+00
 -0.1700000      0.0000000E+00
 -0.1600000      0.0000000E+00
 -0.1500000      0.0000000E+00
 -0.1400000      0.0000000E+00
 -0.1300000      0.0000000E+00
 -0.1200000      0.0000000E+00
 -0.1100000      0.0000000E+00
 -0.1000000      0.0000000E+00
 -9.0000004E-02  0.0000000E+00
 -7.9999998E-02  0.0000000E+00
 -7.0000000E-02  0.0000000E+00
 -5.9999999E-02  0.0000000E+00
 -5.0000001E-02  0.0000000E+00
 -3.9999999E-02  0.0000000E+00
 -2.9999999E-02  0.0000000E+00
 -2.0000000E-02  0.0000000E+00
 -9.9999998E-03  0.0000000E+00
 -3.4694470E-17  0.0000000E+00
  9.9999998E-03  0.0000000E+00
  2.0000000E-02  0.0000000E+00
  2.9999999E-02  0.0000000E+00
  3.9999999E-02  0.0000000E+00
  5.0000001E-02  0.0000000E+00
  5.9999999E-02  0.0000000E+00
  7.0000000E-02  0.0000000E+00
  7.9999998E-02  0.0000000E+00
  9.0000004E-02  0.0000000E+00
  0.1000000      0.0000000E+00
  0.1100000      0.0000000E+00
  0.1200000      0.0000000E+00
  0.1300000      0.0000000E+00
  0.1400000      0.0000000E+00
  0.1500000      0.0000000E+00
  0.1600000      0.0000000E+00
  0.1700000      0.0000000E+00
  0.1800000      0.0000000E+00
  0.1900000      0.0000000E+00
  0.2000000      0.0000000E+00
  0.2100000      0.0000000E+00
  0.2200000      0.0000000E+00
  0.2300000      0.0000000E+00
  0.2400000      0.0000000E+00
  0.2500000      0.0000000E+00
  0.2600000      0.0000000E+00
  0.2700000      0.0000000E+00
  0.2800000      0.0000000E+00
  0.2900000      0.0000000E+00
  0.3000000      0.0000000E+00
  0.3100000      0.0000000E+00
  0.3200000      0.0000000E+00
  0.3300000      0.0000000E+00
  0.3400000      0.0000000E+00
  0.3500000      0.0000000E+00
  0.3600000      0.0000000E+00
  0.3700000      0.0000000E+00
  0.3800000      0.0000000E+00
  0.3900000      0.0000000E+00
  0.4000000      0.0000000E+00
  0.4100000      0.0000000E+00
  0.4200000      0.0000000E+00
  0.4300000      0.0000000E+00
  0.4400000      0.0000000E+00
  0.4500000      0.0000000E+00
  0.4600000      0.0000000E+00
  0.4700000      0.0000000E+00
  0.4800000      0.0000000E+00
  0.4900000      0.0000000E+00
  0.5000000      0.0000000E+00
  0.5100000      0.0000000E+00
  0.5200000      0.0000000E+00
  0.5300000      0.0000000E+00
  0.5400000      0.0000000E+00
  0.5500000      0.0000000E+00
  0.5600000      0.0000000E+00
  0.5700000      0.0000000E+00
  0.5800000      0.0000000E+00
  0.5900000      0.0000000E+00
  0.6000000      0.0000000E+00
  0.6100000      0.0000000E+00
  0.6200000      0.0000000E+00
  0.6300000      0.0000000E+00
  0.6400000      0.0000000E+00
  0.6500000      0.0000000E+00
  0.6600000      0.0000000E+00
  0.6700000      0.0000000E+00
  0.6800000      0.0000000E+00
  0.6900000      0.0000000E+00
  0.7000000      0.0000000E+00
  0.7100000      0.0000000E+00
  0.7200000      0.0000000E+00
  0.7300000      0.0000000E+00
  0.7400000      0.0000000E+00
  0.7500000      0.0000000E+00
  0.7600000      0.0000000E+00
  0.7700000      0.0000000E+00
  0.7800000      0.0000000E+00
  0.7900000      0.0000000E+00
  0.8000000      0.0000000E+00
  0.8100000      0.0000000E+00
  0.8200000      0.0000000E+00
  0.8300000      0.0000000E+00
  0.8400000      0.0000000E+00
  0.8500000      0.0000000E+00
  0.8600000      0.0000000E+00
  0.8700000      0.0000000E+00
  0.8800000      0.0000000E+00
  0.8900000      0.0000000E+00
  0.9000000      0.0000000E+00
  0.9100000      0.0000000E+00
  0.9200000      0.0000000E+00
  0.9300000      0.0000000E+00
  0.9400000      0.0000000E+00
  0.9500000      0.0000000E+00
  0.9600000      0.0000000E+00
  0.9700000      0.0000000E+00
  0.9800000      0.0000000E+00
  0.9900000      0.0000000E+00
   1.000000      0.0000000E+00
   1.010000      0.0000000E+00
   1.020000      0.0000000E+00
   1.030000      0.0000000E+00
   1.040000      0.0000000E+00
   1.050000      0.0000000E+00
   1.060000      0.0000000E+00
   1.070000      0.0000000E+00
   1.080000      0.0000000E+00
   1.090000      0.0000000E+00
   1.100000      0.0000000E+00
   1.110000      0.0000000E+00
   1.120000      0.0000000E+00
   1.130000      0.0000000E+00
   1.140000      0.0000000E+00
   1.150000      0.0000000E+00
   1.160000      0.0000000E+00
   1.170000      0.0000000E+00
   1.180000      0.0000000E+00
   1.190000      0.0000000E+00
   1.200000      0.0000000E+00
   1.210000      0.0000000E+00
   1.220000      0.0000000E+00
   1.230000      0.0000000E+00
   1.240000      0.0000000E+00
   1.250000      0.0000000E+00
   1.260000      0.0000000E+00
   1.270000      0.0000000E+00
   1.280000      0.0000000E+00
   1.290000      0.0000000E+00
   1.300000      0.0000000E+00
   1.310000      0.0000000E+00
   1.320000      0.0000000E+00
   1.330000      0.0000000E+00
   1.340000      0.0000000E+00
   1.350000      0.0000000E+00
   1.360000      0.0000000E+00
   1.370000      0.0000000E+00
   1.380000      0.0000000E+00
   1.390000      0.0000000E+00
   1.400000      0.0000000E+00
   1.410000      0.0000000E+00
   1.420000      0.0000000E+00
   1.430000      0.0000000E+00
   1.440000      0.0000000E+00
   1.450000      0.0000000E+00
   1.460000      0.0000000E+00
   1.470000      0.0000000E+00
   1.480000      0.0000000E+00
   1.490000      0.0000000E+00
   1.500000      0.0000000E+00
   1.510000      0.0000000E+00
   1.520000      0.0000000E+00
   1.530000      0.0000000E+00
   1.540000      0.0000000E+00
   1.550000      0.0000000E+00
   1.560000      0.0000000E+00
   1.570000      0.0000000E+00
   1.580000      0.0000000E+00
   1.590000      0.0000000E+00
   1.600000      0.0000000E+00
   1.610000      0.0000000E+00
   1.620000      0.0000000E+00
   1.630000      0.0000000E+00
   1.640000      0.0000000E+00
   1.650000      0.0000000E+00
   1.660000      0.0000000E+00
   1.670000      0.0000000E+00
   1.680000      0.0000000E+00
   1.690000      0.0000000E+00
   1.700000      0.0000000E+00
   1.710000      0.0000000E+00
   1.720000      0.0000000E+00
   1.730000      0.0000000E+00
   1.740000      0.0000000E+00
   1.750000      0.0000000E+00
   1.760000      0.0000000E+00
   1.770000      0.0000000E+00
   1.780000      0.0000000E+00
   1.790000      0.0000000E+00
   1.800000      0.0000000E+00
   1.810000      0.0000000E+00
   1.820000      0.0000000E+00
   1.830000      0.0000000E+00
   1.840000      0.0000000E+00
   1.850000      0.0000000E+00
   1.860000      0.0000000E+00
   1.870000      0.0000000E+00
   1.880000      0.0000000E+00
   1.890000      0.0000000E+00
   1.900000      0.0000000E+00
   1.910000      0.0000000E+00
   1.920000      0.0000000E+00
   1.930000      0.0000000E+00
   1.940000      0.0000000E+00
   1.950000      0.0000000E+00
   1.960000      0.0000000E+00
   1.970000      0.0000000E+00
   1.980000      0.0000000E+00
   1.990000      0.0000000E+00
   2.000000      0.0000000E+00
   2.010000      0.0000000E+00
   2.020000      0.0000000E+00
   2.030000      0.0000000E+00
   2.040000      0.0000000E+00
   2.050000      0.0000000E+00
   2.060000      0.0000000E+00
   2.070000      0.0000000E+00
   2.080000      0.0000000E+00
   2.090000      0.0000000E+00
   2.100000      0.0000000E+00
   2.110000      0.0000000E+00
   2.120000      0.0000000E+00
   2.130000      0.0000000E+00
   2.140000      0.0000000E+00
   2.150000      0.0000000E+00
   2.160000      0.0000000E+00
   2.170000      0.0000000E+00
   2.180000      0.0000000E+00
   2.190000      0.0000000E+00
   2.200000      0.0000000E+00
   2.210000      0.0000000E+00
   2.220000      0.0000000E+00
   2.230000      0.0000000E+00
   2.240000      0.0000000E+00
   2.250000      1.3139440E-38
   2.260000      1.7274657E-38
   2.270000      2.1505735E-38
   2.280000      2.5677449E-38
   2.290000      3.0091811E-38
   2.300000      3.4745439E-38
   2.310000      3.9644768E-38
   2.320000      4.4608260E-38
   2.330000      4.9839585E-38
   2.340000      5.5789806E-38
   2.350000      6.2605974E-38
   2.360000      7.0398219E-38
   2.370000      7.8732005E-38
   2.380000      8.7960648E-38
   2.390000      9.8195474E-38
   2.400000      1.0861054E-37
   2.410000      1.1916750E-37
   2.420000      1.2970893E-37
   2.430000      1.3997035E-37
   2.440000      1.4979733E-37
   2.450000      1.5900871E-37
   2.460000      1.6558366E-37
   2.470000      1.6885553E-37
   2.480000      1.6975636E-37
   2.490000      1.6870555E-37
   2.500000      1.6646801E-37
   2.510000      1.6070669E-37
   2.520000      1.5163862E-37
   2.530000      1.4251961E-37
   2.540000      1.3294417E-37
   2.550000      1.2179969E-37
   2.560000      1.0886220E-37
   2.570000      9.3515171E-38
   2.580000      7.5101599E-38
   2.590000      4.9880407E-38
   2.600000      1.7227293E-38
   2.610000     -2.1075832E-38
   2.620000     -6.6010367E-38
   2.630000     -1.1763606E-37
   2.640000     -1.7731253E-37
   2.650000     -2.4429843E-37
   2.660000     -3.1564317E-37
   2.670000     -3.9045180E-37
   2.680000     -4.6539265E-37
   2.690000     -5.3962865E-37
   2.700000     -6.1807908E-37
   2.710000     -7.0058883E-37
   2.720000     -7.8399156E-37
   2.730000     -8.6542982E-37
   2.740000     -9.4211497E-37
   2.750000     -1.0084160E-36
   2.760000     -1.0652888E-36
   2.770000     -1.1254874E-36
   2.780000     -1.1934503E-36
   2.790000     -1.2633134E-36
   2.800000     -1.3260985E-36
   2.810000     -1.3718274E-36
   2.820000     -1.4095636E-36
   2.830000     -1.4453651E-36
   2.840000     -1.4704977E-36
   2.850000     -1.4823475E-36
   2.860000     -1.4801895E-36
   2.870000     -1.3752244E-36
   2.880000     -1.1545916E-36
   2.890000     -7.5524418E-37
   2.900000     -2.8361126E-38
   2.910000      9.3032048E-37
   2.920000      1.9923784E-36
   2.930000      3.1199191E-36
   2.940000      4.1814753E-36
   2.950000      5.0444660E-36
   2.960000      5.7610918E-36
   2.970000      6.3085160E-36
   2.980000      6.6637587E-36
   2.990000      6.9045061E-36
   3.000000      7.0694233E-36
   3.010000      7.1776271E-36
   3.020000      7.2791899E-36
   3.030000      7.2574838E-36
   3.040000      7.0843208E-36
   3.050000      6.9442960E-36
   3.060000      6.7272385E-36
   3.070000      6.3978978E-36
   3.080000      6.1722063E-36
   3.090000      5.9895936E-36
   3.100000      5.8087142E-36
   3.110000      5.7541166E-36
   3.120000      5.8854119E-36
   3.130000      6.1211142E-36
   3.140000      6.2478034E-36
   3.150000      6.3277075E-36
   3.160000      6.2844874E-36
   3.170000      6.1006880E-36
   3.180000      5.8904328E-36
   3.190000      5.6014623E-36
   3.200000      5.1511968E-36
   3.210000      4.5005273E-36
   3.220000      3.6691473E-36
   3.230000      2.6309727E-36
   3.240000      1.3713579E-36
   3.250000     -1.2977555E-37
   3.260000     -1.8987383E-36
   3.270000     -3.8755397E-36
   3.280000     -6.0231444E-36
   3.290000     -8.4068158E-36
   3.300000     -1.1004772E-35
   3.310000     -1.3863769E-35
   3.320000     -1.7015126E-35
   3.330000     -2.0402563E-35
   3.340000     -2.4068624E-35
   3.350000     -2.7894005E-35
   3.360000     -3.1848794E-35
   3.370000     -3.5947478E-35
   3.380000     -4.0002147E-35
   3.390000     -4.3955212E-35
   3.400000     -4.7757962E-35
   3.410000     -5.1245831E-35
   3.420000     -5.4459000E-35
   3.430000     -5.7479395E-35
   3.440000     -6.0164217E-35
   3.450000     -6.2498612E-35
   3.460000     -6.4468765E-35
   3.470000     -6.6034893E-35
   3.480000     -6.7280561E-35
   3.490000     -6.8171767E-35
   3.500000     -6.8782979E-35
   3.510000     -6.8643400E-35
   3.520000     -6.7360717E-35
   3.530000     -6.4986155E-35
   3.540000     -6.1358957E-35
   3.550000     -5.6761592E-35
   3.560000     -5.1369046E-35
   3.570000     -4.4931271E-35
   3.580000     -3.7380141E-35
   3.590000     -2.8889214E-35
   3.600000     -1.9828506E-35
   3.610000     -1.0014809E-35
   3.620000      1.6499235E-36
   3.630000      1.4798352E-35
   3.640000      2.7493507E-35
   3.650000      4.0554610E-35
   3.660000      5.7344558E-35
   3.670000      7.7290504E-35
   3.680000      9.7343387E-35
   3.690000      1.1664093E-34
   3.700000      1.3571242E-34
   3.710000      1.5535654E-34
   3.720000      1.7579207E-34
   3.730000      1.9664406E-34
   3.740000      2.1719067E-34
   3.750000      2.3644410E-34
   3.760000      2.5357711E-34
   3.770000      2.7006898E-34
   3.780000      2.8788945E-34
   3.790000      3.0432828E-34
   3.800000      3.1586337E-34
   3.810000      3.2328317E-34
   3.820000      3.2821825E-34
   3.830000      3.3169275E-34
   3.840000      3.3493287E-34
   3.850000      3.3723610E-34
   3.860000      3.3853799E-34
   3.870000      3.3950382E-34
   3.880000      3.4105015E-34
   3.890000      3.4004625E-34
   3.900000      3.3521223E-34
   3.910000      3.2943452E-34
   3.920000      3.2071602E-34
   3.930000      3.0499925E-34
   3.940000      2.8625944E-34
   3.950000      2.6677566E-34
   3.960000      2.4202914E-34
   3.970000      2.1095107E-34
   3.980000      1.7287195E-34
   3.990000      1.3125346E-34
   4.000000      8.7318194E-35
   4.010000      3.9416966E-35
   4.020000     -1.2922524E-35
   4.030000     -7.0540366E-35
   4.040000     -1.3330143E-34
   4.050000     -2.0079062E-34
   4.060000     -2.7375007E-34
   4.070000     -3.4924176E-34
   4.080000     -4.2650273E-34
   4.090000     -5.0917144E-34
   4.100000     -5.9694629E-34
   4.110000     -6.8970809E-34
   4.120000     -7.9093991E-34
   4.130000     -8.9987298E-34
   4.140000     -1.0091429E-33
   4.150000     -1.1171372E-33
   4.160000     -1.2260831E-33
   4.170000     -1.3337497E-33
   4.180000     -1.4385463E-33
   4.190000     -1.5412182E-33
   4.200000     -1.6385354E-33
   4.210000     -1.7314574E-33
   4.220000     -1.8211286E-33
   4.230000     -1.9052423E-33
   4.240000     -1.9819553E-33
   4.250000     -2.0460282E-33
   4.260000     -2.1004565E-33
   4.270000     -2.1516102E-33
   4.280000     -2.1917516E-33
   4.290000     -2.2160684E-33
   4.300000     -2.2311469E-33
   4.310000     -2.2364212E-33
   4.320000     -2.2231798E-33
   4.330000     -2.1907879E-33
   4.340000     -2.1417235E-33
   4.350000     -2.0747977E-33
   4.360000     -1.9925616E-33
   4.370000     -1.8925621E-33
   4.380000     -1.7684780E-33
   4.390000     -1.6185169E-33
   4.400000     -1.4456427E-33
   4.410000     -1.2503229E-33
   4.420000     -1.0298637E-33
   4.430000     -7.8356148E-34
   4.440000     -5.1078825E-34
   4.450000     -2.1106958E-34
   4.460000      1.1598723E-34
   4.470000      4.7050915E-34
   4.480000      8.5236207E-34
   4.490000      1.2613353E-33
   4.500000      1.6969315E-33
   4.510000      2.1584697E-33
   4.520000      2.6451563E-33
   4.530000      3.1560921E-33
   4.540000      3.6898929E-33
   4.550000      4.2447189E-33
   4.560000      4.8187121E-33
   4.570000      5.4096893E-33
   4.580000      6.0151802E-33
   4.590000      6.6323875E-33
   4.600000      7.2584543E-33
   4.610000      7.8902553E-33
   4.620000      8.5244411E-33
   4.630000      9.1565904E-33
   4.640000      9.7819593E-33
   4.650000      1.0396417E-32
   4.660000      1.0995439E-32
   4.670000      1.1574289E-32
   4.680000      1.2127652E-32
   4.690000      1.2649417E-32
   4.700000      1.3134216E-32
   4.710000      1.3576994E-32
   4.720000      1.3969791E-32
   4.730000      1.4309011E-32
   4.740000      1.4590728E-32
   4.750000      1.4805991E-32
   4.760000      1.4948080E-32
   4.770000      1.5011007E-32
   4.780000      1.4987296E-32
   4.790000      1.4869350E-32
   4.800000      1.4650562E-32
   4.810000      1.4323621E-32
   4.820000      1.3881715E-32
   4.830000      1.3317616E-32
   4.840000      1.2621891E-32
   4.850000      1.1790079E-32
   4.860000      1.0817659E-32
   4.870000      9.6963686E-33
   4.880000      8.4194195E-33
   4.890000      6.9819325E-33
   4.900000      5.3798255E-33
   4.910000      3.6079849E-33
   4.920000      1.6626741E-33
   4.930000     -4.5909028E-34
   4.940000     -2.7594805E-33
   4.950000     -5.2397466E-33
   4.960000     -7.9001721E-33
   4.970000     -1.0740104E-32
   4.980000     -1.3757677E-32
   4.990000     -1.6949942E-32
   5.000000     -2.0312494E-32
   5.010000     -2.3839582E-32
   5.020000     -2.7524391E-32
   5.030000     -3.1358504E-32
   5.040000     -3.5332031E-32
   5.050000     -3.9433607E-32
   5.060000     -4.3650314E-32
   5.070000     -4.7967634E-32
   5.080000     -5.2369443E-32
   5.090000     -5.6837979E-32
   5.100000     -6.1354469E-32
   5.110000     -6.5897114E-32
   5.120000     -7.0442539E-32
   5.130000     -7.4966629E-32
   5.140000     -7.9442947E-32
   5.150000     -8.3843586E-32
   5.160000     -8.8138637E-32
   5.170000     -9.2296472E-32
   5.180000     -9.6283655E-32
   5.190000     -1.0006498E-31
   5.200000     -1.0360357E-31
   5.210000     -1.0686084E-31
   5.220000     -1.0979659E-31
   5.230000     -1.1236909E-31
   5.240000     -1.1453511E-31
   5.250000     -1.1625014E-31
   5.260000     -1.1746843E-31
   5.270000     -1.1814332E-31
   5.280000     -1.1822692E-31
   5.290000     -1.1767055E-31
   5.300000     -1.1642539E-31
   5.310000     -1.1444226E-31
   5.320000     -1.1167172E-31
   5.330000     -1.0806456E-31
   5.340000     -1.0357201E-31
   5.350000     -9.8145973E-32
   5.360000     -9.1739405E-32
   5.370000     -8.4306578E-32
   5.380000     -7.5803387E-32
   5.390000     -6.6187743E-32
   5.400000     -5.5419898E-32
   5.410000     -4.3462840E-32
   5.420000     -3.0282653E-32
   5.430000     -1.5848918E-32
   5.440000     -1.3511457E-34
   5.450000      1.6880963E-32
   5.460000      3.5216826E-32
   5.470000      5.4884872E-32
   5.480000      7.5891890E-32
   5.490000      9.8238731E-32
   5.500000      1.2191983E-31
   5.510000      1.4692279E-31
   5.520000      1.7322796E-31
   5.530000      2.0080794E-31
   5.540000      2.2962716E-31
   5.550000      2.5964155E-31
   5.560000      2.9079798E-31
   5.570000      3.2303386E-31
   5.580000      3.5627677E-31
   5.590000      3.9044400E-31
   5.600000      4.2544216E-31
   5.610000      4.6116679E-31
   5.620000      4.9750203E-31
   5.630000      5.3432030E-31
   5.640000      5.7148195E-31
   5.650000      6.0883489E-31
   5.660000      6.4621467E-31
   5.670000      6.8344394E-31
   5.680000      7.2033236E-31
   5.690000      7.5667672E-31
   5.700000      7.9226062E-31
   5.710000      8.2685439E-31
   5.720000      8.6021558E-31
   5.730000      8.9208859E-31
   5.740000      9.2220494E-31
   5.750000      9.5028383E-31
   5.760000      9.7603186E-31
   5.770000      9.9914396E-31
   5.780000      1.0193038E-30
   5.790000      1.0361837E-30
   5.800000      1.0494464E-30
   5.810000      1.0587447E-30
   5.820000      1.0637231E-30
   5.830000      1.0640182E-30
   5.840000      1.0592602E-30
   5.850000      1.0490737E-30
   5.860000      1.0330791E-30
   5.870000      1.0108938E-30
   5.880000      9.8213409E-31
   5.890000      9.4641608E-31
   5.900000      9.0335772E-31
   5.910000      8.5258088E-31
   5.920000      7.9371278E-31
   5.930000      7.2638808E-31
   5.940000      6.5025117E-31
   5.950000      5.6495829E-31
   5.960000      4.7017983E-31
   5.970000      3.6560291E-31
   5.980000      2.5093384E-31
   5.990000      1.2590079E-31
   6.000000     -9.7435015E-33
   6.010000     -1.5621856E-31
   6.020000     -3.1371356E-31
   6.030000     -4.8238404E-31
   6.040000     -6.6234861E-31
   6.050000     -8.5368575E-31
   6.060000     -1.0564308E-30
   6.070000     -1.2705720E-30
   6.080000     -1.4960476E-30
   6.090000     -1.7327419E-30
   6.100000     -1.9804810E-30
   6.110000     -2.2390307E-30
   6.120000     -2.5080915E-30
   6.130000     -2.7872963E-30
   6.140000     -3.0762044E-30
   6.150000     -3.3743007E-30
   6.160000     -3.6809900E-30
   6.170000     -3.9955941E-30
   6.180000     -4.3173493E-30
   6.190000     -4.6454006E-30
   6.200000     -4.9788016E-30
   6.210000     -5.3165085E-30
   6.220000     -5.6573805E-30
   6.230000     -6.0001738E-30
   6.240000     -6.3435415E-30
   6.250000     -6.6860313E-30
   6.260000     -7.0260813E-30
   6.270000     -7.3620237E-30
   6.280000     -7.6920769E-30
   6.290000     -8.0143512E-30
   6.300000     -8.3268424E-30
   6.310000     -8.6274364E-30
   6.320000     -8.9139095E-30
   6.330000     -9.1839248E-30
   6.340000     -9.4350405E-30
   6.350000     -9.6647039E-30
   6.360000     -9.8702638E-30
   6.370000     -1.0048965E-29
   6.380000     -1.0197954E-29
   6.390000     -1.0314290E-29
   6.400000     -1.0394943E-29
   6.410000     -1.0436801E-29
   6.420000     -1.0436679E-29
   6.430000     -1.0391324E-29
   6.440000     -1.0297428E-29
   6.450000     -1.0151630E-29
   6.460000     -9.9505345E-30
   6.470000     -9.6907160E-30
   6.480000     -9.3687359E-30
   6.490000     -8.9811530E-30
   6.500000     -8.5245398E-30
   6.510000     -7.9954929E-30
   6.520000     -7.3906576E-30
   6.530000     -6.7067396E-30
   6.540000     -5.9405245E-30
   6.550000     -5.0888975E-30
   6.560000     -4.1488646E-30
   6.570000     -3.1175745E-30
   6.580000     -1.9923426E-30
   6.590000     -7.7067243E-31
   6.600000      5.4971744E-31
   6.610000      1.9708686E-30
   6.620000      3.4945570E-30
   6.630000      5.1222635E-30
   6.640000      6.8551475E-30
   6.650000      8.6940141E-30
   6.660000      1.0639288E-29
   6.670000      1.2690980E-29
   6.680000      1.4848664E-29
   6.690000      1.7111432E-29
   6.700000      1.9477871E-29
   6.710000      2.1946036E-29
   6.720000      2.4513405E-29
   6.730000      2.7176855E-29
   6.740000      2.9932632E-29
   6.750000      3.2776306E-29
   6.760000      3.5702760E-29
   6.770000      3.8706142E-29
   6.780000      4.1779830E-29
   6.790000      4.4916427E-29
   6.800000      4.8107705E-29
   6.810000      5.1344594E-29
   6.820000      5.4617146E-29
   6.830000      5.7914531E-29
   6.840000      6.1224970E-29
   6.850000      6.4535770E-29
   6.860000      6.7833251E-29
   6.870000      7.1102788E-29
   6.880000      7.4328738E-29
   6.890000      7.7494486E-29
   6.900000      8.0582395E-29
   6.910000      8.3573822E-29
   6.920000      8.6449127E-29
   6.930000      8.9187661E-29
   6.940000      9.1767805E-29
   6.950000      9.4166948E-29
   6.960000      9.6361539E-29
   6.970000      9.8327083E-29
   6.980000      1.0003821E-28
   6.990000      1.0146869E-28
   7.000000      1.0259147E-28
   7.010000      1.0337877E-28
   7.020000      1.0380207E-28
   7.030000      1.0383223E-28
   7.040000      1.0343953E-28
   7.050000      1.0259379E-28
   7.060000      1.0126443E-28