  -2.600000      0.0000000E+00
  -2.590000      0.0000000E+00
  -2.580000      0.0000000E+00
  -2.570000      0.0000000E+00
  -2.560000      0.0000000E+00
  -2.550000      0.0000000E+00
  -2.540000      0.0000000E+00
  -2.530000      0.0000000E+00
  -2.520000      0.0000000E+00
  -2.510000      0.0000000E+00
  -2.500000      0.0000000E+00
  -2.490000      0.0000000E+00
  -2.480000      0.0000000E+00
  -2.470000      0.0000000E+00
  -2.460000      0.0000000E+00
  -2.450000      0.0000000E+00
  -2.440000      0.0000000E+00
  -2.430000      0.0000000E+00
  -2.420000      0.0000000E+00
  -2.410000      0.0000000E+00
  -2.400000      0.0000000E+00
  -2.390000      0.0000000E+00
  -2.380000      0.0000000E+00
  -2.370000      0.0000000E+00
  -2.360000      0.0000000E+00
  -2.350000      0.0000000E+00
  -2.340000      0.0000000E+00
  -2.330000      0.0000000E+00
  -2.320000      0.0000000E+00
  -2.310000      0.0000000E+00
  -2.300000      0.0000000E+00
  -2.290000      0.0000000E+00
  -2.280000      0.0000000E+00
  -2.270000      0.0000000E+00
  -2.260000      0.0000000E+00
  -2.250000      0.0000000E+00
  -2.240000      0.0000000E+00
  -2.230000      0.0000000E+00
  -2.220000      0.0000000E+00
  -2.210000      0.0000000E+00
  -2.200000      0.0000000E+00
  -2.190000      0.0000000E+00
  -2.180000      0.0000000E+00
  -2.170000      0.0000000E+00
  -2.160000      0.0000000E+00
  -2.150000      0.0000000E+00
  -2.140000      0.0000000E+00
  -2.130000      0.0000000E+00
  -2.120000      0.0000000E+00
  -2.110000      0.0000000E+00
  -2.100000      0.0000000E+00
  -2.090000      0.0000000E+00
  -2.080000      0.0000000E+00
  -2.070000      0.0000000E+00
  -2.060000      0.0000000E+00
  -2.050000      0.0000000E+00
  -2.040000      0.0000000E+00
  -2.030000      0.0000000E+00
  -2.020000      0.0000000E+00
  -2.010000      0.0000000E+00
  -2.000000      0.0000000E+00
  -1.990000      0.0000000E+00
  -1.980000      0.0000000E+00
  -1.970000      0.0000000E+00
  -1.960000      0.0000000E+00
  -1.950000      0.0000000E+00
  -1.940000      0.0000000E+00
  -1.930000      0.0000000E+00
  -1.920000      0.0000000E+00
  -1.910000      0.0000000E+00
  -1.900000      0.0000000E+00
  -1.890000      0.0000000E+00
  -1.880000      0.0000000E+00
  -1.870000      0.0000000E+00
  -1.860000      0.0000000E+00
  -1.850000      0.0000000E+00
  -1.840000      0.0000000E+00
  -1.830000      0.0000000E+00
  -1.820000      0.0000000E+00
  -1.810000      0.0000000E+00
  -1.800000      0.0000000E+00
  -1.790000      0.0000000E+00
  -1.780000      0.0000000E+00
  -1.770000      0.0000000E+00
  -1.760000      0.0000000E+00
  -1.750000      0.0000000E+00
  -1.740000      0.0000000E+00
  -1.730000      0.0000000E+00
  -1.720000      0.0000000E+00
  -1.710000      0.0000000E+00
  -1.700000      0.0000000E+00
  -1.690000      0.0000000E+00
  -1.680000      0.0000000E+00
  -1.670000      0.0000000E+00
  -1.660000      0.0000000E+00
  -1.650000      0.0000000E+00
  -1.640000      0.0000000E+00
  -1.630000      0.0000000E+00
  -1.620000      0.0000000E+00
  -1.610000      0.0000000E+00
  -1.600000      0.0000000E+00
  -1.590000      0.0000000E+00
  -1.580000      0.0000000E+00
  -1.570000      0.0000000E+00
  -1.560000      0.0000000E+00
  -1.550000      0.0000000E+00
  -1.540000      0.0000000E+00
  -1.530000      0.0000000E+00
  -1.520000      0.0000000E+00
  -1.510000      0.0000000E+00
  -1.500000      0.0000000E+00
  -1.490000      0.0000000E+00
  -1.480000      0.0000000E+00
  -1.470000      0.0000000E+00
  -1.460000      0.0000000E+00
  -1.450000      0.0000000E+00
  -1.440000      0.0000000E+00
  -1.430000      0.0000000E+00
  -1.420000      0.0000000E+00
  -1.410000      0.0000000E+00
  -1.400000      0.0000000E+00
  -1.390000      0.0000000E+00
  -1.380000      0.0000000E+00
  -1.370000      0.0000000E+00
  -1.360000      0.0000000E+00
  -1.350000      0.0000000E+00
  -1.340000      0.0000000E+00
  -1.330000      0.0000000E+00
  -1.320000      0.0000000E+00
  -1.310000      0.0000000E+00
  -1.300000      0.0000000E+00
  -1.290000      0.0000000E+00
  -1.280000      0.0000000E+00
  -1.270000      0.0000000E+00
  -1.260000      0.0000000E+00
  -1.250000      0.0000000E+00
  -1.240000      0.0000000E+00
  -1.230000      0.0000000E+00
  -1.220000      0.0000000E+00
  -1.210000      0.0000000E+00
  -1.200000      0.0000000E+00
  -1.190000      0.0000000E+00
  -1.180000      0.0000000E+00
  -1.170000      0.0000000E+00
  -1.160000      0.0000000E+00
  -1.150000      0.0000000E+00
  -1.140000      0.0000000E+00
  -1.130000      0.0000000E+00
  -1.120000      0.0000000E+00
  -1.110000      0.0000000E+00
  -1.100000      0.0000000E+00
  -1.090000      0.0000000E+00
  -1.080000      0.0000000E+00
  -1.070000      0.0000000E+00
  -1.060000      0.0000000E+00
  -1.050000      0.0000000E+00
  -1.040000      0.0000000E+00
  -1.030000      0.0000000E+00
  -1.020000      0.0000000E+00
  -1.010000      0.0000000E+00
  -1.000000      0.0000000E+00
 -0.9900000      0.0000000E+00
 -0.9800000      0.0000000E+00
 -0.9700000      0.0000000E+00
 -0.9600000      0.0000000E+00
 -0.9500000      0.0000000E+00
 -0.9400000      0.0000000E+00
 -0.9300000      0.0000000E+00
 -0.9200000      0.0000000E+00
 -0.9100000      0.0000000E+00
 -0.9000000      0.0000000E+00
 -0.8900000      0.0000000E+00
 -0.8800000      0.0000000E+00
 -0.8700000      0.0000000E+00
 -0.8600000      0.0000000E+00
 -0.8500000      0.0000000E+00
 -0.8400000      0.0000000E+00
 -0.8300000      0.0000000E+00
 -0.8200000      0.0000000E+00
 -0.8100000      0.0000000E+00
 -0.8000000      0.0000000E+00
 -0.7900000      0.0000000E+00
 -0.7800000      0.0000000E+00
 -0.7700000      0.0000000E+00
 -0.7600000      0.0000000E+00
 -0.7500000      0.0000000E+00
 -0.7400000      0.0000000E+00
 -0.7300000      0.0000000E+00
 -0.7200000      0.0000000E+00
 -0.7100000      0.0000000E+00
 -0.7000000      0.0000000E+00
 -0.6900000      0.0000000E+00
 -0.6800000      0.0000000E+00
 -0.6700000      0.0000000E+00
 -0.6600000      0.0000000E+00
 -0.6500000      0.0000000E+00
 -0.6400000      0.0000000E+00
 -0.6300000      0.0000000E+00
 -0.6200000      0.0000000E+00
 -0.6100000      0.0000000E+00
 -0.6000000      0.0000000E+00
 -0.5900000      0.0000000E+00
 -0.5800000      0.0000000E+00
 -0.5700000      0.0000000E+00
 -0.5600000      0.0000000E+00
 -0.5500000      0.0000000E+00
 -0.5400000      0.0000000E+00
 -0.5300000      0.0000000E+00
 -0.5200000      0.0000000E+00
 -0.5100000      0.0000000E+00
 -0.5000000      0.0000000E+00
 -0.4900000      0.0000000E+00
 -0.4800000      0.0000000E+00
 -0.4700000      0.0000000E+00
 -0.4600000      0.0000000E+00
 -0.4500000      0.0000000E+00
 -0.4400000      0.0000000E+00
 -0.4300000      0.0000000E+00
 -0.4200000      0.0000000E+00
 -0.4100000      0.0000000E+00
 -0.4000000      0.0000000E+00
 -0.3900000      0.0000000E+00
 -0.3800000      0.0000000E+00
 -0.3700000      0.0000000E+00
 -0.3600000      0.0000000E+00
 -0.3500000      0.0000000E+00
 -0.3400000      0.0000000E+00
 -0.3300000      0.0000000E+00
 -0.3200000      0.0000000E+00
 -0.3100000      0.0000000E+00
 -0.3000000      0.0000000E+00
 -0.2900000      0.0000000E+00
 -0.2800000      0.0000000E+00
 -0.2700000      0.0000000E+00
 -0.2600000      0.0000000E+00
 -0.2500000      0.0000000E+00
 -0.2400000      0.0000000E+00
 -0.2300000      0.0000000E+00
 -0.2200000      0.0000000E+00
 -0.2100000      0.0000000E+00
 -0.2000000      0.0000000E+00
 -0.1900000      0.0000000E+00
 -0.1800000      0.0000000E+00
 -0.1700000      0.0000000E+00
 -0.1600000      0.0000000E+00
 -0.1500000      0.0000000E+00
 -0.1400000      0.0000000E+00
 -0.1300000      0.0000000E+00
 -0.1200000      0.0000000E+00
 -0.1100000      0.0000000E+00
 -0.1000000      0.0000000E+00
 -9.0000004E-02  0.0000000E+00
 -7.9999998E-02  0.0000000E+00
 -7.0000000E-02  0.0000000E+00
 -5.9999999E-02  0.0000000E+00
 -5.0000001E-02  0.0000000E+00
 -3.9999999E-02  0.0000000E+00
 -2.9999999E-02  0.0000000E+00
 -2.0000000E-02  0.0000000E+00
 -9.9999998E-03  0.0000000E+00
 -3.4694470E-17  0.0000000E+00
  9.9999998E-03  0.0000000E+00
  2.0000000E-02  0.0000000E+00
  2.9999999E-02  0.0000000E+00
  3.9999999E-02  0.0000000E+00
  5.0000001E-02  0.0000000E+00
  5.9999999E-02  0.0000000E+00
  7.0000000E-02  0.0000000E+00
  7.9999998E-02  0.0000000E+00
  9.0000004E-02  0.0000000E+00
  0.1000000      0.0000000E+00
  0.1100000      0.0000000E+00
  0.1200000      0.0000000E+00
  0.1300000      0.0000000E+00
  0.1400000      0.0000000E+00
  0.1500000      0.0000000E+00
  0.1600000      0.0000000E+00
  0.1700000      0.0000000E+00
  0.1800000      0.0000000E+00
  0.1900000      0.0000000E+00
  0.2000000      0.0000000E+00
  0.2100000      0.0000000E+00
  0.2200000      0.0000000E+00
  0.2300000      0.0000000E+00
  0.2400000      0.0000000E+00
  0.2500000      0.0000000E+00
  0.2600000      0.0000000E+00
  0.2700000      0.0000000E+00
  0.2800000      0.0000000E+00
  0.2900000      0.0000000E+00
  0.3000000      0.0000000E+00
  0.3100000      0.0000000E+00
  0.3200000      0.0000000E+00
  0.3300000      0.0000000E+00
  0.3400000      0.0000000E+00
  0.3500000      0.0000000E+00
  0.3600000      0.0000000E+00
  0.3700000      0.0000000E+00
  0.3800000      0.0000000E+00
  0.3900000      0.0000000E+00
  0.4000000      0.0000000E+00
  0.4100000      0.0000000E+00
  0.4200000      0.0000000E+00
  0.4300000      0.0000000E+00
  0.4400000      0.0000000E+00
  0.4500000      0.0000000E+00
  0.4600000      0.0000000E+00
  0.4700000      0.0000000E+00
  0.4800000      0.0000000E+00
  0.4900000      0.0000000E+00
  0.5000000      0.0000000E+00
  0.5100000      0.0000000E+00
  0.5200000      0.0000000E+00
  0.5300000      0.0000000E+00
  0.5400000      0.0000000E+00
  0.5500000      0.0000000E+00
  0.5600000      0.0000000E+00
  0.5700000      0.0000000E+00
  0.5800000      0.0000000E+00
  0.5900000      0.0000000E+00
  0.6000000      0.0000000E+00
  0.6100000      0.0000000E+00
  0.6200000      0.0000000E+00
  0.6300000      0.0000000E+00
  0.6400000      0.0000000E+00
  0.6500000      0.0000000E+00
  0.6600000      0.0000000E+00
  0.6700000      0.0000000E+00
  0.6800000      0.0000000E+00
  0.6900000      0.0000000E+00
  0.7000000      0.0000000E+00
  0.7100000      0.0000000E+00
  0.7200000      0.0000000E+00
  0.7300000      0.0000000E+00
  0.7400000      0.0000000E+00
  0.7500000      0.0000000E+00
  0.7600000      0.0000000E+00
  0.7700000      0.0000000E+00
  0.7800000      0.0000000E+00
  0.7900000      0.0000000E+00
  0.8000000      0.0000000E+00
  0.8100000      0.0000000E+00
  0.8200000      0.0000000E+00
  0.8300000      0.0000000E+00
  0.8400000      0.0000000E+00
  0.8500000      0.0000000E+00
  0.8600000      0.0000000E+00
  0.8700000      0.0000000E+00
  0.8800000      0.0000000E+00
  0.8900000      0.0000000E+00
  0.9000000      0.0000000E+00
  0.9100000      0.0000000E+00
  0.9200000      0.0000000E+00
  0.9300000      0.0000000E+00
  0.9400000      0.0000000E+00
  0.9500000      0.0000000E+00
  0.9600000      0.0000000E+00
  0.9700000      0.0000000E+00
  0.9800000      0.0000000E+00
  0.9900000      0.0000000E+00
   1.000000      0.0000000E+00
   1.010000      0.0000000E+00
   1.020000      0.0000000E+00
   1.030000      0.0000000E+00
   1.040000      0.0000000E+00
   1.050000      0.0000000E+00
   1.060000      0.0000000E+00
   1.070000      0.0000000E+00
   1.080000      0.0000000E+00
   1.090000      0.0000000E+00
   1.100000      0.0000000E+00
   1.110000      0.0000000E+00
   1.120000      0.0000000E+00
   1.130000      0.0000000E+00
   1.140000      0.0000000E+00
   1.150000      0.0000000E+00
   1.160000      0.0000000E+00
   1.170000      0.0000000E+00
   1.180000      0.0000000E+00
   1.190000      0.0000000E+00
   1.200000      0.0000000E+00
   1.210000      0.0000000E+00
   1.220000      0.0000000E+00
   1.230000      0.0000000E+00
   1.240000      0.0000000E+00
   1.250000      0.0000000E+00
   1.260000      0.0000000E+00
   1.270000      0.0000000E+00
   1.280000      0.0000000E+00
   1.290000      0.0000000E+00
   1.300000      0.0000000E+00
   1.310000      0.0000000E+00
   1.320000      0.0000000E+00
   1.330000      0.0000000E+00
   1.340000      0.0000000E+00
   1.350000      0.0000000E+00
   1.360000      0.0000000E+00
   1.370000      0.0000000E+00
   1.380000      0.0000000E+00
   1.390000      0.0000000E+00
   1.400000      0.0000000E+00
   1.410000      0.0000000E+00
   1.420000      0.0000000E+00
   1.430000      0.0000000E+00
   1.440000      0.0000000E+00
   1.450000      0.0000000E+00
   1.460000      0.0000000E+00
   1.470000      0.0000000E+00
   1.480000      0.0000000E+00
   1.490000      0.0000000E+00
   1.500000      0.0000000E+00
   1.510000      0.0000000E+00
   1.520000      0.0000000E+00
   1.530000      0.0000000E+00
   1.540000      0.0000000E+00
   1.550000      0.0000000E+00
   1.560000      0.0000000E+00
   1.570000      0.0000000E+00
   1.580000      0.0000000E+00
   1.590000      0.0000000E+00
   1.600000      0.0000000E+00
   1.610000      0.0000000E+00
   1.620000      0.0000000E+00
   1.630000      0.0000000E+00
   1.640000      0.0000000E+00
   1.650000      0.0000000E+00
   1.660000      0.0000000E+00
   1.670000      0.0000000E+00
   1.680000      0.0000000E+00
   1.690000      0.0000000E+00
   1.700000      0.0000000E+00
   1.710000      0.0000000E+00
   1.720000      0.0000000E+00
   1.730000      0.0000000E+00
   1.740000      0.0000000E+00
   1.750000      0.0000000E+00
   1.760000      0.0000000E+00
   1.770000      0.0000000E+00
   1.780000      0.0000000E+00
   1.790000      0.0000000E+00
   1.800000      0.0000000E+00
   1.810000      0.0000000E+00
   1.820000      0.0000000E+00
   1.830000      0.0000000E+00
   1.840000      0.0000000E+00
   1.850000      0.0000000E+00
   1.860000      0.0000000E+00
   1.870000      0.0000000E+00
   1.880000      0.0000000E+00
   1.890000      0.0000000E+00
   1.900000      0.0000000E+00
   1.910000      0.0000000E+00
   1.920000      0.0000000E+00
   1.930000      0.0000000E+00
   1.940000      0.0000000E+00
   1.950000      0.0000000E+00
   1.960000      0.0000000E+00
   1.970000      0.0000000E+00
   1.980000      0.0000000E+00
   1.990000      0.0000000E+00
   2.000000      0.0000000E+00
   2.010000      0.0000000E+00
   2.020000      0.0000000E+00
   2.030000      0.0000000E+00
   2.040000      0.0000000E+00
   2.050000      0.0000000E+00
   2.060000      0.0000000E+00
   2.070000      0.0000000E+00
   2.080000      0.0000000E+00
   2.090000      0.0000000E+00
   2.100000      0.0000000E+00
   2.110000      0.0000000E+00
   2.120000      0.0000000E+00
   2.130000      0.0000000E+00
   2.140000      0.0000000E+00
   2.150000      0.0000000E+00
   2.160000      0.0000000E+00
   2.170000      0.0000000E+00
   2.180000      0.0000000E+00
   2.190000      0.0000000E+00
   2.200000      0.0000000E+00
   2.210000      0.0000000E+00
   2.220000      0.0000000E+00
   2.230000      0.0000000E+00
   2.240000      0.0000000E+00
   2.250000      0.0000000E+00
   2.260000      0.0000000E+00
   2.270000      0.0000000E+00
   2.280000      0.0000000E+00
   2.290000      0.0000000E+00
   2.300000      0.0000000E+00
   2.310000      0.0000000E+00
   2.320000      0.0000000E+00
   2.330000      0.0000000E+00
   2.340000      0.0000000E+00
   2.350000      0.0000000E+00
   2.360000      0.0000000E+00
   2.370000      0.0000000E+00
   2.380000      0.0000000E+00
   2.390000      0.0000000E+00
   2.400000      0.0000000E+00
   2.410000      0.0000000E+00
   2.420000      0.0000000E+00
   2.430000      0.0000000E+00
   2.440000      0.0000000E+00
   2.450000      0.0000000E+00
   2.460000      0.0000000E+00
   2.470000      0.0000000E+00
   2.480000      0.0000000E+00
   2.490000      0.0000000E+00
   2.500000      0.0000000E+00
   2.510000      0.0000000E+00
   2.520000      0.0000000E+00
   2.530000      0.0000000E+00
   2.540000      0.0000000E+00
   2.550000      0.0000000E+00
   2.560000      0.0000000E+00
   2.570000      0.0000000E+00
   2.580000      0.0000000E+00
   2.590000      0.0000000E+00
   2.600000      0.0000000E+00
   2.610000      0.0000000E+00
   2.620000      0.0000000E+00
   2.630000      0.0000000E+00
   2.640000      0.0000000E+00
   2.650000      0.0000000E+00
   2.660000      0.0000000E+00
   2.670000      0.0000000E+00
   2.680000      0.0000000E+00
   2.690000      0.0000000E+00
   2.700000      0.0000000E+00
   2.710000      0.0000000E+00
   2.720000      0.0000000E+00
   2.730000      0.0000000E+00
   2.740000      0.0000000E+00
   2.750000      0.0000000E+00
   2.760000      0.0000000E+00
   2.770000      0.0000000E+00
   2.780000      0.0000000E+00
   2.790000      0.0000000E+00
   2.800000      0.0000000E+00
   2.810000      0.0000000E+00
   2.820000      0.0000000E+00
   2.830000      0.0000000E+00
   2.840000      0.0000000E+00
   2.850000      0.0000000E+00
   2.860000      0.0000000E+00
   2.870000      0.0000000E+00
   2.880000      0.0000000E+00
   2.890000      0.0000000E+00
   2.900000      0.0000000E+00
   2.910000      0.0000000E+00
   2.920000      0.0000000E+00
   2.930000      0.0000000E+00
   2.940000      0.0000000E+00
   2.950000      0.0000000E+00
   2.960000      0.0000000E+00
   2.970000      0.0000000E+00
   2.980000      0.0000000E+00
   2.990000      0.0000000E+00
   3.000000      0.0000000E+00
   3.010000      0.0000000E+00
   3.020000      0.0000000E+00
   3.030000      0.0000000E+00
   3.040000      0.0000000E+00
   3.050000      0.0000000E+00
   3.060000      0.0000000E+00
   3.070000      0.0000000E+00
   3.080000      0.0000000E+00
   3.090000      0.0000000E+00
   3.100000      0.0000000E+00
   3.110000      0.0000000E+00
   3.120000      0.0000000E+00
   3.130000      0.0000000E+00
   3.140000      0.0000000E+00
   3.150000      0.0000000E+00
   3.160000      0.0000000E+00
   3.170000      0.0000000E+00
   3.180000      0.0000000E+00
   3.190000      0.0000000E+00
   3.200000      0.0000000E+00
   3.210000      0.0000000E+00
   3.220000      0.0000000E+00
   3.230000      0.0000000E+00
   3.240000      0.0000000E+00
   3.250000      0.0000000E+00
   3.260000      0.0000000E+00
   3.270000      0.0000000E+00
   3.280000      0.0000000E+00
   3.290000      0.0000000E+00
   3.300000      0.0000000E+00
   3.310000      0.0000000E+00
   3.320000      0.0000000E+00
   3.330000      0.0000000E+00
   3.340000      0.0000000E+00
   3.350000      0.0000000E+00
   3.360000      0.0000000E+00
   3.370000      0.0000000E+00
   3.380000      0.0000000E+00
   3.390000      0.0000000E+00
   3.400000      0.0000000E+00
   3.410000      0.0000000E+00
   3.420000      0.0000000E+00
   3.430000      0.0000000E+00
   3.440000      0.0000000E+00
   3.450000      0.0000000E+00
   3.460000      0.0000000E+00
   3.470000      0.0000000E+00
   3.480000      0.0000000E+00
   3.490000      0.0000000E+00
   3.500000      0.0000000E+00
   3.510000      0.0000000E+00
   3.520000      0.0000000E+00
   3.530000      0.0000000E+00
   3.540000      0.0000000E+00
   3.550000      0.0000000E+00
   3.560000      0.0000000E+00
   3.570000      0.0000000E+00
   3.580000      0.0000000E+00
   3.590000      0.0000000E+00
   3.600000      0.0000000E+00
   3.610000     -1.2585394E-38
   3.620000     -1.6170972E-38
   3.630000     -2.0081546E-38
   3.640000     -2.2684741E-38
   3.650000     -2.4190932E-38
   3.660000     -2.5840454E-38
   3.670000     -2.7628202E-38
   3.680000     -3.0168686E-38
   3.690000     -3.3543798E-38
   3.700000     -3.7213756E-38
   3.710000     -4.1169123E-38
   3.720000     -4.5396216E-38
   3.730000     -4.9879342E-38
   3.740000     -5.4599840E-38
   3.750000     -5.9534905E-38
   3.760000     -6.4660580E-38
   3.770000     -6.9952197E-38
   3.780000     -7.5385166E-38
   3.790000     -8.0935681E-38
   3.800000     -8.5031278E-38
   3.810000     -8.7511044E-38
   3.820000     -8.9840148E-38
   3.830000     -9.2175944E-38
   3.840000     -9.4702732E-38
   3.850000     -9.7573567E-38
   3.860000     -1.0088062E-37
   3.870000     -1.0573205E-37
   3.880000     -1.1194714E-37
   3.890000     -1.1509721E-37
   3.900000     -1.1482306E-37
   3.910000     -1.1391067E-37
   3.920000     -1.1230513E-37
   3.930000     -1.0788229E-37
   3.940000     -1.0013145E-37
   3.950000     -9.0595190E-38
   3.960000     -7.8581673E-38
   3.970000     -6.4147150E-38
   3.980000     -4.8202229E-38
   3.990000     -3.1579951E-38
   4.000000     -1.3912282E-38
   4.010000      0.0000000E+00
   4.020000      2.8583924E-38
   4.030000      5.2337477E-38
   4.040000      8.0140797E-38
   4.050000      1.1058913E-37
   4.060000      1.4287719E-37
   4.070000      1.7849558E-37
   4.080000      2.1874910E-37
   4.090000      2.6201095E-37
   4.100000      3.0758048E-37
   4.110000      3.5665723E-37
   4.120000      4.0936480E-37
   4.130000      4.6486648E-37
   4.140000      5.2437638E-37
   4.150000      5.8708769E-37
   4.160000      6.5141348E-37
   4.170000      7.1302384E-37
   4.180000      7.6834204E-37
   4.190000      8.1746380E-37
   4.200000      8.6201882E-37
   4.210000      9.0524679E-37
   4.220000      9.4782492E-37
   4.230000      9.8629529E-37
   4.240000      1.0179928E-36
   4.250000      1.0449523E-36
   4.260000      1.0685173E-36
   4.270000      1.0884400E-36
   4.280000      1.1126097E-36
   4.290000      1.1439289E-36
   4.300000      1.1465681E-36
   4.310000      1.1148731E-36
   4.320000      1.0694513E-36
   4.330000      1.0077662E-36
   4.340000      9.2273993E-37
   4.350000      8.0915924E-37
   4.360000      6.7332333E-37
   4.370000      5.3335092E-37
   4.380000      3.8730015E-37
   4.390000      2.8749169E-37
   4.400000      2.1951518E-37
   4.410000      1.1569047E-37
   4.420000      0.0000000E+00
   4.430000     -1.0383705E-37
   4.440000     -1.9397473E-37
   4.450000     -3.0562988E-37
   4.460000     -4.5433697E-37
   4.470000     -6.5604296E-37
   4.480000     -9.0900317E-37
   4.490000     -1.2904283E-36
   4.500000     -1.9943525E-36
   4.510000     -2.9145810E-36
   4.520000     -3.8625181E-36
   4.530000     -4.8139188E-36
   4.540000     -5.7495474E-36
   4.550000     -6.7764616E-36
   4.560000     -7.8901729E-36
   4.570000     -8.9868244E-36
   4.580000     -1.0014598E-35
   4.590000     -1.0776273E-35
   4.600000     -1.1401652E-35
   4.610000     -1.2264930E-35
   4.620000     -1.3302571E-35
   4.630000     -1.4407651E-35
   4.640000     -1.5527408E-35
   4.650000     -1.6645245E-35
   4.660000     -1.7544890E-35
   4.670000     -1.8172118E-35
   4.680000     -1.8390885E-35
   4.690000     -1.8144319E-35
   4.700000     -1.7752807E-35
   4.710000     -1.7377146E-35
   4.720000     -1.7042252E-35
   4.730000     -1.6671918E-35
   4.740000     -1.6282877E-35
   4.750000     -1.5906034E-35
   4.760000     -1.5524567E-35
   4.770000     -1.5063888E-35
   4.780000     -1.4501773E-35
   4.790000     -1.3826557E-35
   4.800000     -1.3090768E-35
   4.810000     -1.2227077E-35
   4.820000     -1.1199536E-35
   4.830000     -1.0147744E-35
   4.840000     -8.9984667E-36
   4.850000     -7.6251350E-36
   4.860000     -6.0263507E-36
   4.870000     -4.1520374E-36
   4.880000     -1.6774754E-36
   4.890000      1.4750891E-36
   4.900000      5.1255033E-36
   4.910000      9.3329028E-36
   4.920000      1.3903756E-35
   4.930000      1.8705998E-35
   4.940000      2.4057752E-35
   4.950000      3.0028216E-35
   4.960000      3.6323636E-35
   4.970000      4.2986560E-35
   4.980000      5.0029395E-35
   4.990000      5.7314694E-35
   5.000000      6.4757875E-35
   5.010000      7.2314369E-35
   5.020000      7.9760414E-35
   5.030000      8.6895120E-35
   5.040000      9.3596700E-35
   5.050000      1.0021815E-34
   5.060000      1.0680747E-34
   5.070000      1.1291149E-34
   5.080000      1.1902682E-34
   5.090000      1.2409895E-34
   5.100000      1.2865081E-34
   5.110000      1.3379625E-34
   5.120000      1.3986089E-34
   5.130000      1.4679537E-34
   5.140000      1.5410878E-34
   5.150000      1.6189659E-34
   5.160000      1.6744249E-34
   5.170000      1.7045757E-34
   5.180000      1.7272884E-34
   5.190000      1.7434967E-34
   5.200000      1.7519781E-34
   5.210000      1.7511188E-34
   5.220000      1.7379824E-34
   5.230000      1.7096141E-34
   5.240000      1.6665850E-34
   5.250000      1.6109963E-34
   5.260000      1.5453593E-34
   5.270000      1.4676170E-34
   5.280000      1.3732836E-34
   5.290000      1.2398001E-34
   5.300000      1.0680798E-34
   5.310000      8.7448302E-35
   5.320000      6.5205854E-35
   5.330000      4.0439847E-35
   5.340000      1.3024446E-35
   5.350000     -1.7920004E-35
   5.360000     -5.3738189E-35
   5.370000     -9.5876132E-35
   5.380000     -1.4222826E-34
   5.390000     -1.9016179E-34
   5.400000     -2.3985797E-34
   5.410000     -2.9298074E-34
   5.420000     -3.4831197E-34
   5.430000     -4.0205521E-34
   5.440000     -4.5672373E-34
   5.450000     -5.1345759E-34
   5.460000     -5.7199716E-34
   5.470000     -6.3090866E-34
   5.480000     -6.9016414E-34
   5.490000     -7.4960108E-34
   5.500000     -8.0702279E-34
   5.510000     -8.6613656E-34
   5.520000     -9.2728486E-34
   5.530000     -9.8857560E-34
   5.540000     -1.0494328E-33
   5.550000     -1.1107866E-33
   5.560000     -1.1725001E-33
   5.570000     -1.2327335E-33
   5.580000     -1.2913519E-33
   5.590000     -1.3483304E-33
   5.600000     -1.4059819E-33
   5.610000     -1.4649458E-33
   5.620000     -1.5229721E-33
   5.630000     -1.5792364E-33
   5.640000     -1.6323752E-33
   5.650000     -1.6795805E-33
   5.660000     -1.7199729E-33
   5.670000     -1.7545118E-33
   5.680000     -1.7824021E-33
   5.690000     -1.8007405E-33
   5.700000     -1.8068228E-33
   5.710000     -1.7964724E-33
   5.720000     -1.7699128E-33
   5.730000     -1.7296053E-33
   5.740000     -1.6741082E-33
   5.750000     -1.6020882E-33
   5.760000     -1.5122007E-33
   5.770000     -1.4051398E-33
   5.780000     -1.2854628E-33
   5.790000     -1.1509880E-33
   5.800000     -9.9746775E-34
   5.810000     -8.2300161E-34
   5.820000     -6.2477332E-34
   5.830000     -4.0239605E-34
   5.840000     -1.5484631E-34
   5.850000      1.1733356E-34
   5.860000      4.1471170E-34
   5.870000      7.3781193E-34
   5.880000      1.0872462E-33
   5.890000      1.4627256E-33
   5.900000      1.8639410E-33
   5.910000      2.2913753E-33
   5.920000      2.7451362E-33
   5.930000      3.2259073E-33
   5.940000      3.7345265E-33
   5.950000      4.2744490E-33
   5.960000      4.8439011E-33
   5.970000      5.4400696E-33
   5.980000      6.0620997E-33
   5.990000      6.7067779E-33
   6.000000      7.3753205E-33
   6.010000      8.0677527E-33
   6.020000      8.7808128E-33
   6.030000      9.5123449E-33
   6.040000      1.0260343E-32
   6.050000      1.1023142E-32
   6.060000      1.1797882E-32
   6.070000      1.2580749E-32
   6.080000      1.3365875E-32
   6.090000      1.4147148E-32
   6.100000      1.4922312E-32
   6.110000      1.5688143E-32
   6.120000      1.6440154E-32
   6.130000      1.7172327E-32
   6.140000      1.7879065E-32
   6.150000      1.8556320E-32
   6.160000      1.9198296E-32
   6.170000      1.9797579E-32
   6.180000      2.0347394E-32
   6.190000      2.0840857E-32
   6.200000      2.1271950E-32
   6.210000      2.1630883E-32
   6.220000      2.1907315E-32
   6.230000      2.2094047E-32
   6.240000      2.2180484E-32
   6.250000      2.2158919E-32
   6.260000      2.2021751E-32
   6.270000      2.1755904E-32
   6.280000      2.1351628E-32
   6.290000      2.0798866E-32
   6.300000      2.0086465E-32
   6.310000      1.9204314E-32
   6.320000      1.8140739E-32
   6.330000      1.6884262E-32
   6.340000      1.5423666E-32
   6.350000      1.3747815E-32
   6.360000      1.1843914E-32
   6.370000      9.7012204E-33
   6.380000      7.3113412E-33
   6.390000      4.6636559E-33
   6.400000      1.7474416E-33
   6.410000     -1.4460860E-33
   6.420000     -4.9252075E-33
   6.430000     -8.6968891E-33
   6.440000     -1.2768248E-32
   6.450000     -1.7145815E-32
   6.460000     -2.1834542E-32
   6.470000     -2.6838296E-32
   6.480000     -3.2159718E-32
   6.490000     -3.7800331E-32
   6.500000     -4.3760193E-32
   6.510000     -5.0037638E-32
   6.520000     -5.6628277E-32
   6.530000     -6.3528799E-32
   6.540000     -7.0734138E-32
   6.550000     -7.8234615E-32
   6.560000     -8.6019920E-32
   6.570000     -9.4078328E-32
   6.580000     -1.0239463E-31
   6.590000     -1.1095089E-31
   6.600000     -1.1972800E-31
   6.610000     -1.2870385E-31
   6.620000     -1.3785330E-31
   6.630000     -1.4714856E-31
   6.640000     -1.5655817E-31
   6.650000     -1.6604816E-31
   6.660000     -1.7558171E-31
   6.670000     -1.8511814E-31
   6.680000     -1.9461322E-31
   6.690000     -2.0401859E-31
   6.700000     -2.1328198E-31
   6.710000     -2.2234650E-31
   6.720000     -2.3115163E-31
   6.730000     -2.3963360E-31
   6.740000     -2.4772429E-31
   6.750000     -2.5535170E-31
   6.760000     -2.6243913E-31
   6.770000     -2.6890595E-31
   6.780000     -2.7466836E-31
   6.790000     -2.7963816E-31
   6.800000     -2.8372350E-31
   6.810000     -2.8682899E-31
   6.820000     -2.8885700E-31
   6.830000     -2.8970315E-31
   6.840000     -2.8926245E-31
   6.850000     -2.8742913E-31
   6.860000     -2.8409105E-31
   6.870000     -2.7913524E-31
   6.880000     -2.7244764E-31
   6.890000     -2.6391097E-31
   6.900000     -2.5340658E-31
   6.910000     -2.4081626E-31
   6.920000     -2.2602076E-31
   6.930000     -2.0890093E-31
   6.940000     -1.8933833E-31
   6.950000     -1.6721545E-31
   6.960000     -1.4241656E-31
   6.970000     -1.1482873E-31
   6.980000     -8.4341249E-32
   6.990000     -5.0847025E-32
   7.000000     -1.4244242E-32
   7.010000      2.5563969E-32
   7.020000      6.8668583E-32
   7.030000      1.1515362E-31
   7.040000      1.6509516E-31
   7.050000      2.1856051E-31
   7.060000      2.7560706E-31