  -2.600000      0.0000000E+00
  -2.590000      0.0000000E+00
  -2.580000      0.0000000E+00
  -2.570000      0.0000000E+00
  -2.560000      0.0000000E+00
  -2.550000      0.0000000E+00
  -2.540000      0.0000000E+00
  -2.530000      0.0000000E+00
  -2.520000      0.0000000E+00
  -2.510000      0.0000000E+00
  -2.500000      0.0000000E+00
  -2.490000      0.0000000E+00
  -2.480000      0.0000000E+00
  -2.470000      0.0000000E+00
  -2.460000      0.0000000E+00
  -2.450000      0.0000000E+00
  -2.440000      0.0000000E+00
  -2.430000      0.0000000E+00
  -2.420000      0.0000000E+00
  -2.410000      0.0000000E+00
  -2.400000      0.0000000E+00
  -2.390000      0.0000000E+00
  -2.380000      0.0000000E+00
  -2.370000      0.0000000E+00
  -2.360000      0.0000000E+00
  -2.350000      0.0000000E+00
  -2.340000      0.0000000E+00
  -2.330000      0.0000000E+00
  -2.320000      0.0000000E+00
  -2.310000      0.0000000E+00
  -2.300000      0.0000000E+00
  -2.290000      0.0000000E+00
  -2.280000      0.0000000E+00
  -2.270000      0.0000000E+00
  -2.260000      0.0000000E+00
  -2.250000      0.0000000E+00
  -2.240000      0.0000000E+00
  -2.230000      0.0000000E+00
  -2.220000      0.0000000E+00
  -2.210000      0.0000000E+00
  -2.200000      0.0000000E+00
  -2.190000      0.0000000E+00
  -2.180000      0.0000000E+00
  -2.170000      0.0000000E+00
  -2.160000      0.0000000E+00
  -2.150000      0.0000000E+00
  -2.140000      0.0000000E+00
  -2.130000      0.0000000E+00
  -2.120000      0.0000000E+00
  -2.110000      0.0000000E+00
  -2.100000      0.0000000E+00
  -2.090000      0.0000000E+00
  -2.080000      0.0000000E+00
  -2.070000      0.0000000E+00
  -2.060000      0.0000000E+00
  -2.050000      0.0000000E+00
  -2.040000      0.0000000E+00
  -2.030000      0.0000000E+00
  -2.020000      0.0000000E+00
  -2.010000      0.0000000E+00
  -2.000000      0.0000000E+00
  -1.990000      0.0000000E+00
  -1.980000      0.0000000E+00
  -1.970000      0.0000000E+00
  -1.960000      0.0000000E+00
  -1.950000      0.0000000E+00
  -1.940000      0.0000000E+00
  -1.930000      0.0000000E+00
  -1.920000      0.0000000E+00
  -1.910000      0.0000000E+00
  -1.900000      0.0000000E+00
  -1.890000      0.0000000E+00
  -1.880000      0.0000000E+00
  -1.870000      0.0000000E+00
  -1.860000      0.0000000E+00
  -1.850000      0.0000000E+00
  -1.840000      0.0000000E+00
  -1.830000      0.0000000E+00
  -1.820000      0.0000000E+00
  -1.810000      0.0000000E+00
  -1.800000      0.0000000E+00
  -1.790000      0.0000000E+00
  -1.780000      0.0000000E+00
  -1.770000      0.0000000E+00
  -1.760000      0.0000000E+00
  -1.750000      0.0000000E+00
  -1.740000      0.0000000E+00
  -1.730000      0.0000000E+00
  -1.720000      0.0000000E+00
  -1.710000      0.0000000E+00
  -1.700000      0.0000000E+00
  -1.690000      0.0000000E+00
  -1.680000      0.0000000E+00
  -1.670000      0.0000000E+00
  -1.660000      0.0000000E+00
  -1.650000      0.0000000E+00
  -1.640000      0.0000000E+00
  -1.630000      0.0000000E+00
  -1.620000      0.0000000E+00
  -1.610000      0.0000000E+00
  -1.600000      0.0000000E+00
  -1.590000      0.0000000E+00
  -1.580000      0.0000000E+00
  -1.570000      0.0000000E+00
  -1.560000      0.0000000E+00
  -1.550000      0.0000000E+00
  -1.540000      0.0000000E+00
  -1.530000      0.0000000E+00
  -1.520000      0.0000000E+00
  -1.510000      0.0000000E+00
  -1.500000      0.0000000E+00
  -1.490000      0.0000000E+00
  -1.480000      0.0000000E+00
  -1.470000      0.0000000E+00
  -1.460000      0.0000000E+00
  -1.450000      0.0000000E+00
  -1.440000      0.0000000E+00
  -1.430000      0.0000000E+00
  -1.420000      0.0000000E+00
  -1.410000      0.0000000E+00
  -1.400000      0.0000000E+00
  -1.390000      0.0000000E+00
  -1.380000      0.0000000E+00
  -1.370000      0.0000000E+00
  -1.360000      0.0000000E+00
  -1.350000      0.0000000E+00
  -1.340000      0.0000000E+00
  -1.330000      0.0000000E+00
  -1.320000      0.0000000E+00
  -1.310000      0.0000000E+00
  -1.300000      0.0000000E+00
  -1.290000      0.0000000E+00
  -1.280000      0.0000000E+00
  -1.270000      0.0000000E+00
  -1.260000      0.0000000E+00
  -1.250000      0.0000000E+00
  -1.240000      0.0000000E+00
  -1.230000      0.0000000E+00
  -1.220000      0.0000000E+00
  -1.210000      0.0000000E+00
  -1.200000      0.0000000E+00
  -1.190000      0.0000000E+00
  -1.180000      0.0000000E+00
  -1.170000      0.0000000E+00
  -1.160000      0.0000000E+00
  -1.150000      0.0000000E+00
  -1.140000      0.0000000E+00
  -1.130000      0.0000000E+00
  -1.120000      0.0000000E+00
  -1.110000      0.0000000E+00
  -1.100000      0.0000000E+00
  -1.090000      0.0000000E+00
  -1.080000      0.0000000E+00
  -1.070000      0.0000000E+00
  -1.060000      0.0000000E+00
  -1.050000      0.0000000E+00
  -1.040000      0.0000000E+00
  -1.030000      0.0000000E+00
  -1.020000      0.0000000E+00
  -1.010000      0.0000000E+00
  -1.000000      0.0000000E+00
 -0.9900000      0.0000000E+00
 -0.9800000      0.0000000E+00
 -0.9700000      0.0000000E+00
 -0.9600000      0.0000000E+00
 -0.9500000      0.0000000E+00
 -0.9400000      0.0000000E+00
 -0.9300000      0.0000000E+00
 -0.9200000      0.0000000E+00
 -0.9100000      0.0000000E+00
 -0.9000000      0.0000000E+00
 -0.8900000      0.0000000E+00
 -0.8800000      0.0000000E+00
 -0.8700000      0.0000000E+00
 -0.8600000      0.0000000E+00
 -0.8500000      0.0000000E+00
 -0.8400000      0.0000000E+00
 -0.8300000      0.0000000E+00
 -0.8200000      0.0000000E+00
 -0.8100000      0.0000000E+00
 -0.8000000      0.0000000E+00
 -0.7900000      0.0000000E+00
 -0.7800000      0.0000000E+00
 -0.7700000      0.0000000E+00
 -0.7600000      0.0000000E+00
 -0.7500000      0.0000000E+00
 -0.7400000      0.0000000E+00
 -0.7300000      0.0000000E+00
 -0.7200000      0.0000000E+00
 -0.7100000      0.0000000E+00
 -0.7000000      0.0000000E+00
 -0.6900000      0.0000000E+00
 -0.6800000      0.0000000E+00
 -0.6700000      0.0000000E+00
 -0.6600000      0.0000000E+00
 -0.6500000      0.0000000E+00
 -0.6400000      0.0000000E+00
 -0.6300000      0.0000000E+00
 -0.6200000      0.0000000E+00
 -0.6100000      0.0000000E+00
 -0.6000000      0.0000000E+00
 -0.5900000      0.0000000E+00
 -0.5800000      0.0000000E+00
 -0.5700000      0.0000000E+00
 -0.5600000      0.0000000E+00
 -0.5500000      0.0000000E+00
 -0.5400000      0.0000000E+00
 -0.5300000      0.0000000E+00
 -0.5200000      0.0000000E+00
 -0.5100000      0.0000000E+00
 -0.5000000      0.0000000E+00
 -0.4900000      0.0000000E+00
 -0.4800000      0.0000000E+00
 -0.4700000      0.0000000E+00
 -0.4600000      0.0000000E+00
 -0.4500000      0.0000000E+00
 -0.4400000      0.0000000E+00
 -0.4300000      0.0000000E+00
 -0.4200000      0.0000000E+00
 -0.4100000      0.0000000E+00
 -0.4000000      0.0000000E+00
 -0.3900000      0.0000000E+00
 -0.3800000      0.0000000E+00
 -0.3700000      0.0000000E+00
 -0.3600000      0.0000000E+00
 -0.3500000      0.0000000E+00
 -0.3400000      0.0000000E+00
 -0.3300000      0.0000000E+00
 -0.3200000      0.0000000E+00
 -0.3100000      0.0000000E+00
 -0.3000000      0.0000000E+00
 -0.2900000      0.0000000E+00
 -0.2800000      0.0000000E+00
 -0.2700000     -1.2527957E-38
 -0.2600000     -1.7774522E-38
 -0.2500000     -2.2685981E-38
 -0.2400000     -2.6635450E-38
 -0.2300000     -2.8317717E-38
 -0.2200000     -2.6480497E-38
 -0.2100000     -2.0902316E-38
 -0.2000000      0.0000000E+00
 -0.1900000      0.0000000E+00
 -0.1800000      2.0365932E-38
 -0.1700000      3.8846726E-38
 -0.1600000      5.9110631E-38
 -0.1500000      7.9517034E-38
 -0.1400000      9.9358843E-38
 -0.1300000      1.1707669E-37
 -0.1200000      1.2917835E-37
 -0.1100000      1.3520027E-37
 -0.1000000      1.3107924E-37
 -9.0000004E-02  1.1519583E-37
 -7.9999998E-02  8.9170070E-38
 -7.0000000E-02  5.1657584E-38
 -5.9999999E-02  0.0000000E+00
 -5.0000001E-02 -5.3865874E-38
 -3.9999999E-02 -1.1188758E-37
 -2.9999999E-02 -1.7343367E-37
 -2.0000000E-02 -2.4638668E-37
 -9.9999998E-03 -3.2484340E-37
 -3.4694470E-17 -4.0258211E-37
  9.9999998E-03 -4.9080598E-37
  2.0000000E-02 -5.7763837E-37
  2.9999999E-02 -6.6223630E-37
  3.9999999E-02 -7.5287646E-37
  5.0000001E-02 -8.3038373E-37
  5.9999999E-02 -8.8843237E-37
  7.0000000E-02 -9.1298384E-37
  7.9999998E-02 -8.8963018E-37
  9.0000004E-02 -7.8724490E-37
  0.1000000     -5.6484866E-37
  0.1100000     -2.2352119E-37
  0.1200000      2.1485937E-37
  0.1300000      7.5055142E-37
  0.1400000      1.4438937E-36
  0.1500000      2.2941676E-36
  0.1600000      3.2349161E-36
  0.1700000      4.1894277E-36
  0.1800000      5.1020591E-36
  0.1900000      5.8963676E-36
  0.2000000      6.5080695E-36
  0.2100000      6.8822360E-36
  0.2200000      6.9647947E-36
  0.2300000      6.6080604E-36
  0.2400000      5.7616518E-36
  0.2500000      4.3464915E-36
  0.2600000      2.2495686E-36
  0.2700000     -4.8304139E-37
  0.2800000     -3.9948487E-36
  0.2900000     -8.4636490E-36
  0.3000000     -1.3935061E-35
  0.3100000     -2.0452089E-35
  0.3200000     -2.8110966E-35
  0.3300000     -3.6858851E-35
  0.3400000     -4.6704391E-35
  0.3500000     -5.7678087E-35
  0.3600000     -6.9729871E-35
  0.3700000     -8.2887832E-35
  0.3800000     -9.6970880E-35
  0.3900000     -1.1149549E-34
  0.4000000     -1.2586634E-34
  0.4100000     -1.4020325E-34
  0.4200000     -1.5564173E-34
  0.4300000     -1.7186233E-34
  0.4400000     -1.8785873E-34
  0.4500000     -2.0344480E-34
  0.4600000     -2.1809870E-34
  0.4700000     -2.3188050E-34
  0.4800000     -2.4537260E-34
  0.4900000     -2.5507688E-34
  0.5000000     -2.5962503E-34
  0.5100000     -2.6159555E-34
  0.5200000     -2.5949568E-34
  0.5300000     -2.5183189E-34
  0.5400000     -2.3986571E-34
  0.5500000     -2.2656363E-34
  0.5600000     -2.0879604E-34
  0.5700000     -1.8319448E-34
  0.5800000     -1.5378064E-34
  0.5900000     -1.2331783E-34
  0.6000000     -8.7905878E-35
  0.6100000     -5.1685465E-35
  0.6200000     -1.6936444E-35
  0.6300000      2.3539381E-35
  0.6400000      7.0485890E-35
  0.6500000      1.2084044E-34
  0.6600000      1.7389574E-34
  0.6700000      2.3208724E-34
  0.6800000      2.9600309E-34
  0.6900000      3.6671431E-34
  0.7000000      4.4505382E-34
  0.7100000      5.3046295E-34
  0.7200000      6.2232471E-34
  0.7300000      7.2086842E-34
  0.7400000      8.2608178E-34
  0.7500000      9.3722302E-34
  0.7600000      1.0537046E-33
  0.7700000      1.1750419E-33
  0.7800000      1.2982950E-33
  0.7900000      1.4223467E-33
  0.8000000      1.5472865E-33
  0.8100000      1.6719368E-33
  0.8200000      1.7954203E-33
  0.8300000      1.9189714E-33
  0.8400000      2.0382372E-33
  0.8500000      2.1497685E-33
  0.8600000      2.2566373E-33
  0.8700000      2.3579173E-33
  0.8800000      2.4530424E-33
  0.8900000      2.5422863E-33
  0.9000000      2.6258072E-33
  0.9100000      2.7030722E-33
  0.9200000      2.7756377E-33
  0.9300000      2.8452045E-33
  0.9400000      2.9138817E-33
  0.9500000      2.9792950E-33
  0.9600000      3.0394115E-33
  0.9700000      3.0969927E-33
  0.9800000      3.1519489E-33
  0.9900000      3.2042106E-33
   1.000000      3.2536945E-33
   1.010000      3.3018538E-33
   1.020000      3.3452813E-33
   1.030000      3.3811457E-33
   1.040000      3.4106451E-33
   1.050000      3.4327565E-33
   1.060000      3.4468778E-33
   1.070000      3.4523509E-33
   1.080000      3.4491091E-33
   1.090000      3.4374364E-33
   1.100000      3.4181043E-33
   1.110000      3.3925891E-33
   1.120000      3.3627532E-33
   1.130000      3.3313789E-33
   1.140000      3.3014560E-33
   1.150000      3.2765190E-33
   1.160000      3.2609782E-33
   1.170000      3.2593597E-33
   1.180000      3.2763985E-33
   1.190000      3.3174306E-33
   1.200000      3.3860475E-33
   1.210000      3.4855432E-33
   1.220000      3.6200833E-33
   1.230000      3.7923589E-33
   1.240000      4.0041702E-33
   1.250000      4.2563056E-33
   1.260000      4.5485174E-33
   1.270000      4.8796846E-33
   1.280000      5.2478042E-33
   1.290000      5.6500988E-33
   1.300000      6.0833596E-33
   1.310000      6.5442070E-33
   1.320000      7.0294187E-33
   1.330000      7.5363029E-33
   1.340000      8.0631103E-33
   1.350000      8.6095293E-33
   1.360000      9.1764981E-33
   1.370000      9.7668791E-33
   1.380000      1.0385960E-32
   1.390000      1.1042831E-32
   1.400000      1.1744966E-32
   1.410000      1.2501904E-32
   1.420000      1.3328347E-32
   1.430000      1.4238532E-32
   1.440000      1.5247500E-32
   1.450000      1.6370096E-32
   1.460000      1.7620275E-32
   1.470000      1.9010403E-32
   1.480000      2.0550621E-32
   1.490000      2.2247854E-32
   1.500000      2.4105010E-32
   1.510000      2.6120537E-32
   1.520000      2.8288151E-32
   1.530000      3.0596434E-32
   1.540000      3.3028885E-32
   1.550000      3.5564176E-32
   1.560000      3.8176639E-32
   1.570000      4.0836959E-32
   1.580000      4.3513086E-32
   1.590000      4.6171243E-32
   1.600000      4.8777126E-32
   1.610000      5.1297063E-32
   1.620000      5.3699080E-32
   1.630000      5.5953960E-32
   1.640000      5.8035960E-32
   1.650000      5.9923358E-32
   1.660000      6.1598566E-32
   1.670000      6.3047822E-32
   1.680000      6.4260479E-32
   1.690000      6.5227852E-32
   1.700000      6.5941601E-32
   1.710000      6.6391615E-32
   1.720000      6.6563684E-32
   1.730000      6.6437001E-32
   1.740000      6.5981327E-32
   1.750000      6.5154072E-32
   1.760000      6.3897869E-32
   1.770000      6.2138418E-32
   1.780000      5.9782451E-32
   1.790000      5.6716421E-32
   1.800000      5.2806174E-32
   1.810000      4.7897081E-32
   1.820000      4.1815002E-32
   1.830000      3.4368448E-32
   1.840000      2.5351375E-32
   1.850000      1.4546571E-32
   1.860000      1.7300189E-33
   1.870000     -1.3324543E-32
   1.880000     -3.0840737E-32
   1.890000     -5.1034534E-32
   1.900000     -7.4109553E-32
   1.910000     -1.0025301E-31
   1.920000     -1.2963191E-31
   1.930000     -1.6239074E-31
   1.940000     -1.9864996E-31
   1.950000     -2.3850555E-31
   1.960000     -2.8203029E-31
   1.970000     -3.2927597E-31
   1.980000     -3.8027677E-31
   1.990000     -4.3505403E-31
   2.000000     -4.9362111E-31
   2.010000     -5.5598917E-31
   2.020000     -6.2217289E-31
   2.030000     -6.9219591E-31
   2.040000     -7.6609492E-31
   2.050000     -8.4392351E-31
   2.060000     -9.2575352E-31
   2.070000     -1.0116752E-30
   2.080000     -1.1017946E-30
   2.090000     -1.1962296E-30
   2.100000     -1.2951022E-30
   2.110000     -1.3985300E-30
   2.120000     -1.5066148E-30
   2.130000     -1.6194302E-30
   2.140000     -1.7370073E-30
   2.150000     -1.8593217E-30
   2.160000     -1.9862779E-30
   2.170000     -2.1176971E-30
   2.180000     -2.2533047E-30
   2.190000     -2.3927225E-30
   2.200000     -2.5354608E-30
   2.210000     -2.6809161E-30
   2.220000     -2.8283722E-30
   2.230000     -2.9770045E-30
   2.240000     -3.1258898E-30
   2.250000     -3.2740170E-30
   2.260000     -3.4203049E-30
   2.270000     -3.5636189E-30
   2.280000     -3.7027922E-30
   2.290000     -3.8366458E-30
   2.300000     -3.9640096E-30
   2.310000     -4.0837426E-30
   2.320000     -4.1947476E-30
   2.330000     -4.2959857E-30
   2.340000     -4.3864849E-30
   2.350000     -4.4653438E-30
   2.360000     -4.5317301E-30
   2.370000     -4.5848733E-30
   2.380000     -4.6240536E-30
   2.390000     -4.6485840E-30
   2.400000     -4.6577905E-30
   2.410000     -4.6509895E-30
   2.420000     -4.6274642E-30
   2.430000     -4.5864442E-30
   2.440000     -4.5270827E-30
   2.450000     -4.4484457E-30
   2.460000     -4.3494999E-30
   2.470000     -4.2291142E-30
   2.480000     -4.0860676E-30
   2.490000     -3.9190684E-30
   2.500000     -3.7267835E-30
   2.510000     -3.5078749E-30
   2.520000     -3.2610515E-30
   2.530000     -2.9851241E-30
   2.540000     -2.6790694E-30
   2.550000     -2.3420954E-30
   2.560000     -1.9737111E-30
   2.570000     -1.5737940E-30
   2.580000     -1.1426513E-30
   2.590000     -6.8107296E-31
   2.600000     -1.9037964E-31
   2.610000      3.2754692E-31
   2.620000      8.7024706E-31
   2.630000      1.4346813E-30
   2.640000      2.0172463E-30
   2.650000      2.6138035E-30
   2.660000      3.2197245E-30
   2.670000      3.8299442E-30
   2.680000      4.4390372E-30
   2.690000      5.0412807E-30
   2.700000      5.6307319E-30
   2.710000      6.2013063E-30
   2.720000      6.7468343E-30
   2.730000      7.2611215E-30
   2.740000      7.7379908E-30
   2.750000      8.1713107E-30
   2.760000      8.5549981E-30
   2.770000      8.8830073E-30
   2.780000      9.1493010E-30
   2.790000      9.3477997E-30
   2.800000      9.4723208E-30
   2.810000      9.5165156E-30
   2.820000      9.4737923E-30
   2.830000      9.3372416E-30
   2.840000      9.0995774E-30
   2.850000      8.7530875E-30
   2.860000      8.2896208E-30
   2.870000      7.7005977E-30
   2.880000      6.9770461E-30
   2.890000      6.1096829E-30
   2.900000      5.0890352E-30
   2.910000      3.9056114E-30
   2.920000      2.5501189E-30
   2.930000      1.0136865E-30
   2.940000     -7.1185032E-31
   2.950000     -2.6336565E-30
   2.960000     -4.7575845E-30
   2.970000     -7.0878465E-30
   2.980000     -9.6267179E-30
   2.990000     -1.2374221E-29
   3.000000     -1.5327881E-29
   3.010000     -1.8482482E-29
   3.020000     -2.1829853E-29
   3.030000     -2.5358771E-29
   3.040000     -2.9054847E-29
   3.050000     -3.2900490E-29
   3.060000     -3.6874956E-29
   3.070000     -4.0954383E-29
   3.080000     -4.5111915E-29
   3.090000     -4.9317839E-29
   3.100000     -5.3539721E-29
   3.110000     -5.7742527E-29
   3.120000     -6.1888850E-29
   3.130000     -6.5938954E-29
   3.140000     -6.9850897E-29
   3.150000     -7.3580635E-29
   3.160000     -7.7081915E-29
   3.170000     -8.0306247E-29
   3.180000     -8.3202870E-29
   3.190000     -8.5718538E-29
   3.200000     -8.7797302E-29
   3.210000     -8.9380441E-29
   3.220000     -9.0406010E-29
   3.230000     -9.0808861E-29
   3.240000     -9.0520326E-29
   3.250000     -8.9468257E-29
   3.260000     -8.7576958E-29
   3.270000     -8.4767249E-29
   3.280000     -8.0956742E-29
   3.290000     -7.6060186E-29
   3.300000     -6.9990003E-29
   3.310000     -6.2657013E-29
   3.320000     -5.3971220E-29
   3.330000     -4.3842929E-29
   3.340000     -3.2183863E-29
   3.350000     -1.8908434E-29
   3.360000     -3.9352177E-30
   3.370000      1.2811719E-29
   3.380000      3.1401244E-29
   3.390000      5.1893484E-29
   3.400000      7.4338633E-29
   3.410000      9.8775398E-29
   3.420000      1.2522966E-28
   3.430000      1.5371312E-28
   3.440000      1.8422233E-28
   3.450000      2.1673766E-28
   3.460000      2.5122247E-28
   3.470000      2.8762242E-28
   3.480000      3.2586463E-28
   3.490000      3.6585719E-28
   3.500000      4.0748888E-28
   3.510000      4.5062846E-28
   3.520000      4.9512433E-28
   3.530000      5.4080368E-28
   3.540000      5.8747209E-28
   3.550000      6.3491295E-28
   3.560000      6.8288627E-28
   3.570000      7.3112807E-28
   3.580000      7.7934922E-28
   3.590000      8.2723390E-28
   3.600000      8.7443874E-28
   3.610000      9.2059153E-28
   3.620000      9.6528986E-28
   3.630000      1.0081000E-27
   3.640000      1.0485561E-27
   3.650000      1.0861594E-27
   3.660000      1.1203779E-27
   3.670000      1.1506460E-27
   3.680000      1.1763659E-27
   3.690000      1.1969085E-27
   3.700000      1.2116147E-27
   3.710000      1.2197978E-27
   3.720000      1.2207480E-27
   3.730000      1.2137343E-27
   3.740000      1.1980099E-27
   3.750000      1.1728174E-27
   3.760000      1.1373947E-27
   3.770000      1.0909813E-27
   3.780000      1.0328245E-27
   3.790000      9.6218719E-28
   3.800000      8.7835502E-28
   3.810000      7.8064364E-28
   3.820000      6.6840867E-28
   3.830000      5.4105208E-28
   3.840000      3.9803050E-28
   3.850000      2.3886454E-28
   3.860000      6.3144990E-29
   3.870000     -1.2945602E-28
   3.880000     -3.3917853E-28
   3.890000     -5.6616543E-28
   3.900000     -8.1045308E-28
   3.910000     -1.0719630E-27
   3.920000     -1.3504914E-27
   3.930000     -1.6457000E-27
   3.940000     -1.9571048E-27
   3.950000     -2.2840639E-27
   3.960000     -2.6257663E-27
   3.970000     -2.9812215E-27
   3.980000     -3.3492430E-27
   3.990000     -3.7284363E-27
   4.000000     -4.1171845E-27
   4.010000     -4.5136337E-27
   4.020000     -4.9156804E-27
   4.030000     -5.3209539E-27
   4.040000     -5.7268047E-27
   4.050000     -6.1302897E-27
   4.060000     -6.5281591E-27
   4.070000     -6.9168472E-27
   4.080000     -7.2924598E-27
   4.090000     -7.6507690E-27
   4.100000     -7.9872028E-27
   4.110000     -8.2968446E-27
   4.120000     -8.5744296E-27
   4.130000     -8.8143489E-27
   4.140000     -9.0106474E-27
   4.150000     -9.1570350E-27
   4.160000     -9.2468912E-27
   4.170000     -9.2732818E-27
   4.180000     -9.2289700E-27
   4.190000     -9.1064385E-27
   4.200000     -8.8978996E-27
   4.210000     -8.5953306E-27
   4.220000     -8.1904932E-27
   4.230000     -7.6749525E-27
   4.240000     -7.0401275E-27
   4.250000     -6.2773063E-27
   4.260000     -5.3776968E-27
   4.270000     -4.3324595E-27
   4.280000     -3.1327450E-27
   4.290000     -1.7697549E-27
   4.300000     -2.3478834E-28
   4.310000      1.4807155E-27
   4.320000      3.3851004E-27
   4.330000      5.4864359E-27
   4.340000      7.7924466E-27
   4.350000      1.0310429E-26
   4.360000      1.3047180E-26
   4.370000      1.6008894E-26
   4.380000      1.9201086E-26
   4.390000      2.2628480E-26
   4.400000      2.6294910E-26
   4.410000      3.0203188E-26
   4.420000      3.4355000E-26
   4.430000      3.8750783E-26
   4.440000      4.3389578E-26
   4.450000      4.8268926E-26
   4.460000      5.3384720E-26
   4.470000      5.8731040E-26
   4.480000      6.4300065E-26
   4.490000      7.0081873E-26
   4.500000      7.6064341E-26
   4.510000      8.2232987E-26
   4.520000      8.8570825E-26
   4.530000      9.5058214E-26
   4.540000      1.0167274E-25
   4.550000      1.0838909E-25
   4.560000      1.1517891E-25
   4.570000      1.2201064E-25
   4.580000      1.2884945E-25
   4.590000      1.3565706E-25
   4.600000      1.4239169E-25
   4.610000      1.4900791E-25
   4.620000      1.5545659E-25
   4.630000      1.6168476E-25
   4.640000      1.6763553E-25
   4.650000      1.7324800E-25
   4.660000      1.7845726E-25
   4.670000      1.8319432E-25
   4.680000      1.8738606E-25
   4.690000      1.9095516E-25
   4.700000      1.9382020E-25
   4.710000      1.9589559E-25
   4.720000      1.9709165E-25
   4.730000      1.9731476E-25
   4.740000      1.9646721E-25
   4.750000      1.9444759E-25
   4.760000      1.9115075E-25
   4.770000      1.8646804E-25
   4.780000      1.8028770E-25
   4.790000      1.7249482E-25
   4.800000      1.6297176E-25
   4.810000      1.5159862E-25
   4.820000      1.3825344E-25
   4.830000      1.2281274E-25
   4.840000      1.0515177E-25
   4.850000      8.5145363E-26
   4.860000      6.2668294E-26
   4.870000      3.7595894E-26
   4.880000      9.8045997E-27
   4.890000     -2.0827090E-26
   4.900000     -5.4418097E-26
   4.910000     -9.1083834E-26
   4.920000     -1.3093543E-25
   4.930000     -1.7407891E-25
   4.940000     -2.2061407E-25
   4.950000     -2.7063375E-25
   4.960000     -3.2422262E-25
   4.970000     -3.8145591E-25
   4.980000     -4.4239862E-25
   4.990000     -5.0710424E-25
   5.000000     -5.7561326E-25
   5.010000     -6.4795225E-25
   5.020000     -7.2413230E-25
   5.030000     -8.0414770E-25
   5.040000     -8.8797438E-25
   5.050000     -9.7556850E-25
   5.060000     -1.0668653E-24
   5.070000     -1.1617770E-24
   5.080000     -1.2601912E-24
   5.090000     -1.3619699E-24
   5.100000     -1.4669474E-24
   5.110000     -1.5749287E-24
   5.120000     -1.6856877E-24
   5.130000     -1.7989657E-24
   5.140000     -1.9144702E-24
   5.150000     -2.0318724E-24
   5.160000     -2.1508060E-24
   5.170000     -2.2708655E-24
   5.180000     -2.3916050E-24
   5.190000     -2.5125364E-24
   5.200000     -2.6331284E-24
   5.210000     -2.7528045E-24
   5.220000     -2.8709417E-24
   5.230000     -2.9868706E-24
   5.240000     -3.0998729E-24
   5.250000     -3.2091814E-24
   5.260000     -3.3139778E-24
   5.270000     -3.4133940E-24
   5.280000     -3.5065104E-24
   5.290000     -3.5923558E-24
   5.300000     -3.6699071E-24
   5.310000     -3.7380900E-24
   5.320000     -3.7957782E-24
   5.330000     -3.8417936E-24
   5.340000     -3.8749096E-24
   5.350000     -3.8938506E-24
   5.360000     -3.8972916E-24
   5.370000     -3.8838624E-24
   5.380000     -3.8521478E-24
   5.390000     -3.8006912E-24
   5.400000     -3.7279957E-24
   5.410000     -3.6325286E-24
   5.420000     -3.5127246E-24
   5.430000     -3.3669873E-24
   5.440000     -3.1936963E-24
   5.450000     -2.9912105E-24
   5.460000     -2.7578751E-24
   5.470000     -2.4920242E-24
   5.480000     -2.1919893E-24
   5.490000     -1.8561041E-24
   5.500000     -1.4827146E-24
   5.510000     -1.0701827E-24
   5.520000     -6.1689860E-25
   5.530000     -1.2128630E-25
   5.540000      4.1818439E-25
   5.550000      1.0029886E-24
   5.560000      1.6345392E-24
   5.570000      2.3141724E-24
   5.580000      3.0431331E-24
   5.590000      3.8225703E-24
   5.600000      4.6535216E-24
   5.610000      5.5368952E-24
   5.620000      6.4734608E-24
   5.630000      7.4638366E-24
   5.640000      8.5084723E-24
   5.650000      9.6076332E-24
   5.660000      1.0761385E-23
   5.670000      1.1969579E-23
   5.680000      1.3231835E-23
   5.690000      1.4547518E-23
   5.700000      1.5915734E-23
   5.710000      1.7335302E-23
   5.720000      1.8804737E-23
   5.730000      2.0322239E-23
   5.740000      2.1885665E-23
   5.750000      2.3492518E-23
   5.760000      2.5139926E-23
   5.770000      2.6824622E-23
   5.780000      2.8542925E-23
   5.790000      3.0290741E-23
   5.800000      3.2063507E-23
   5.810000      3.3856206E-23
   5.820000      3.5663341E-23
   5.830000      3.7478917E-23
   5.840000      3.9296424E-23
   5.850000      4.1108829E-23
   5.860000      4.2908546E-23
   5.870000      4.4687449E-23
   5.880000      4.6436840E-23
   5.890000      4.8147450E-23
   5.900000      4.9809422E-23
   5.910000      5.1412312E-23
   5.920000      5.2945069E-23
   5.930000      5.4396049E-23
   5.940000      5.5753010E-23
   5.950000      5.7003127E-23
   5.960000      5.8132952E-23
   5.970000      5.9128444E-23
   5.980000      5.9974999E-23
   5.990000      6.0657427E-23
   6.000000      6.1160001E-23
   6.010000      6.1466439E-23
   6.020000      6.1559941E-23
   6.030000      6.1423222E-23
   6.040000      6.1038523E-23
   6.050000      6.0387668E-23
   6.060000      5.9452060E-23
   6.070000      5.8212766E-23
   6.080000      5.6650538E-23
   6.090000      5.4745855E-23
   6.100000      5.2478987E-23
   6.110000      4.9830075E-23
   6.120000      4.6779165E-23
   6.130000      4.3306296E-23
   6.140000      3.9391548E-23
   6.150000      3.5015141E-23
   6.160000      3.0157550E-23
   6.170000      2.4799556E-23
   6.180000      1.8922342E-23
   6.190000      1.2507599E-23
   6.200000      5.5376454E-24
   6.210000     -2.0044520E-24
   6.220000     -1.0134779E-23
   6.230000     -1.8868444E-23
   6.240000     -2.8219457E-23
   6.250000     -3.8200589E-23
   6.260000     -4.8823207E-23
   6.270000     -6.0097153E-23
   6.280000     -7.2030612E-23
   6.290000     -8.4629926E-23
   6.300000     -9.7899437E-23
   6.310000     -1.1184133E-22
   6.320000     -1.2645549E-22
   6.330000     -1.4173927E-22
   6.340000     -1.5768735E-22
   6.350000     -1.7429160E-22
   6.360000     -1.9154080E-22
   6.370000     -2.0942056E-22
   6.380000     -2.2791307E-22
   6.390000     -2.4699699E-22
   6.400000     -2.6664720E-22
   6.410000     -2.8683462E-22
   6.420000     -3.0752600E-22
   6.430000     -3.2868388E-22
   6.440000     -3.5026621E-22
   6.450000     -3.7222633E-22
   6.460000     -3.9451277E-22
   6.470000     -4.1706902E-22
   6.480000     -4.3983350E-22
   6.490000     -4.6273919E-22
   6.500000     -4.8571370E-22
   6.510000     -5.0867912E-22
   6.520000     -5.3155190E-22
   6.530000     -5.5424246E-22
   6.540000     -5.7665555E-22
   6.550000     -5.9868984E-22
   6.560000     -6.2023804E-22
   6.570000     -6.4118670E-22
   6.580000     -6.6141617E-22
   6.590000     -6.8080090E-22
   6.600000     -6.9920920E-22
   6.610000     -7.1650310E-22
   6.620000     -7.3253896E-22
   6.630000     -7.4716715E-22
   6.640000     -7.6023215E-22
   6.650000     -7.7157266E-22
   6.660000     -7.8102218E-22
   6.670000     -7.8840874E-22
   6.680000     -7.9355545E-22
   6.690000     -7.9628074E-22
   6.700000     -7.9639853E-22
   6.710000     -7.9371857E-22
   6.720000     -7.8804695E-22
   6.730000     -7.7918662E-22
   6.740000     -7.6693764E-22
   6.750000     -7.5109762E-22
   6.760000     -7.3146243E-22
   6.770000     -7.0782714E-22
   6.780000     -6.7998613E-22
   6.790000     -6.4773407E-22
   6.800000     -6.1086657E-22
   6.810000     -5.6918059E-22
   6.820000     -5.2247628E-22
   6.830000     -4.7055687E-22
   6.840000     -4.1322985E-22
   6.850000     -3.5030852E-22
   6.860000     -2.8161229E-22
   6.870000     -2.0696820E-22
   6.880000     -1.2621147E-22
   6.890000     -3.9187353E-23
   6.900000      5.4247775E-23
   6.910000      1.5422542E-22
   6.920000      2.6086350E-22
   6.930000      3.7426500E-22
   6.940000      4.9451673E-22
   6.950000      6.2168788E-22
   6.960000      7.5582871E-22
   6.970000      8.9696893E-22
   6.980000      1.0451158E-21
   6.990000      1.2002528E-21
   7.000000      1.3623387E-21
   7.010000      1.5313054E-21
   7.020000      1.7070560E-21
   7.030000      1.8894641E-21
   7.040000      2.0783719E-21
   7.050000      2.2735881E-21
   7.060000      2.4748870E-21