  -2.600000      0.0000000E+00
  -2.590000      0.0000000E+00
  -2.580000      0.0000000E+00
  -2.570000      0.0000000E+00
  -2.560000      0.0000000E+00
  -2.550000      0.0000000E+00
  -2.540000      0.0000000E+00
  -2.530000      0.0000000E+00
  -2.520000      0.0000000E+00
  -2.510000      0.0000000E+00
  -2.500000      0.0000000E+00
  -2.490000      0.0000000E+00
  -2.480000      0.0000000E+00
  -2.470000      0.0000000E+00
  -2.460000      0.0000000E+00
  -2.450000      0.0000000E+00
  -2.440000      0.0000000E+00
  -2.430000      0.0000000E+00
  -2.420000      0.0000000E+00
  -2.410000      0.0000000E+00
  -2.400000      0.0000000E+00
  -2.390000      0.0000000E+00
  -2.380000      0.0000000E+00
  -2.370000      0.0000000E+00
  -2.360000      0.0000000E+00
  -2.350000      0.0000000E+00
  -2.340000      0.0000000E+00
  -2.330000      0.0000000E+00
  -2.320000      0.0000000E+00
  -2.310000      0.0000000E+00
  -2.300000      0.0000000E+00
  -2.290000      0.0000000E+00
  -2.280000      0.0000000E+00
  -2.270000      0.0000000E+00
  -2.260000      0.0000000E+00
  -2.250000      0.0000000E+00
  -2.240000      0.0000000E+00
  -2.230000      0.0000000E+00
  -2.220000      0.0000000E+00
  -2.210000      0.0000000E+00
  -2.200000      0.0000000E+00
  -2.190000      0.0000000E+00
  -2.180000      0.0000000E+00
  -2.170000      0.0000000E+00
  -2.160000      0.0000000E+00
  -2.150000      0.0000000E+00
  -2.140000      0.0000000E+00
  -2.130000      0.0000000E+00
  -2.120000      0.0000000E+00
  -2.110000      0.0000000E+00
  -2.100000      0.0000000E+00
  -2.090000      0.0000000E+00
  -2.080000      0.0000000E+00
  -2.070000      0.0000000E+00
  -2.060000      0.0000000E+00
  -2.050000      0.0000000E+00
  -2.040000      0.0000000E+00
  -2.030000      0.0000000E+00
  -2.020000      0.0000000E+00
  -2.010000      0.0000000E+00
  -2.000000      0.0000000E+00
  -1.990000      0.0000000E+00
  -1.980000      0.0000000E+00
  -1.970000      0.0000000E+00
  -1.960000      0.0000000E+00
  -1.950000      0.0000000E+00
  -1.940000      0.0000000E+00
  -1.930000      0.0000000E+00
  -1.920000      0.0000000E+00
  -1.910000      0.0000000E+00
  -1.900000      0.0000000E+00
  -1.890000      0.0000000E+00
  -1.880000      0.0000000E+00
  -1.870000      0.0000000E+00
  -1.860000      0.0000000E+00
  -1.850000      0.0000000E+00
  -1.840000      0.0000000E+00
  -1.830000      0.0000000E+00
  -1.820000      0.0000000E+00
  -1.810000      0.0000000E+00
  -1.800000      0.0000000E+00
  -1.790000      0.0000000E+00
  -1.780000      0.0000000E+00
  -1.770000      0.0000000E+00
  -1.760000      0.0000000E+00
  -1.750000      0.0000000E+00
  -1.740000      0.0000000E+00
  -1.730000      0.0000000E+00
  -1.720000      0.0000000E+00
  -1.710000      0.0000000E+00
  -1.700000      0.0000000E+00
  -1.690000      0.0000000E+00
  -1.680000      0.0000000E+00
  -1.670000      0.0000000E+00
  -1.660000      0.0000000E+00
  -1.650000      0.0000000E+00
  -1.640000      0.0000000E+00
  -1.630000      0.0000000E+00
  -1.620000      0.0000000E+00
  -1.610000      0.0000000E+00
  -1.600000      0.0000000E+00
  -1.590000      0.0000000E+00
  -1.580000      0.0000000E+00
  -1.570000      0.0000000E+00
  -1.560000      0.0000000E+00
  -1.550000      0.0000000E+00
  -1.540000      0.0000000E+00
  -1.530000      0.0000000E+00
  -1.520000      0.0000000E+00
  -1.510000      0.0000000E+00
  -1.500000      0.0000000E+00
  -1.490000      0.0000000E+00
  -1.480000      0.0000000E+00
  -1.470000      0.0000000E+00
  -1.460000      0.0000000E+00
  -1.450000      0.0000000E+00
  -1.440000      0.0000000E+00
  -1.430000      0.0000000E+00
  -1.420000      0.0000000E+00
  -1.410000      0.0000000E+00
  -1.400000      0.0000000E+00
  -1.390000      0.0000000E+00
  -1.380000      0.0000000E+00
  -1.370000      0.0000000E+00
  -1.360000      0.0000000E+00
  -1.350000      0.0000000E+00
  -1.340000      0.0000000E+00
  -1.330000      0.0000000E+00
  -1.320000      0.0000000E+00
  -1.310000      0.0000000E+00
  -1.300000      0.0000000E+00
  -1.290000      0.0000000E+00
  -1.280000      0.0000000E+00
  -1.270000      0.0000000E+00
  -1.260000      0.0000000E+00
  -1.250000      0.0000000E+00
  -1.240000      0.0000000E+00
  -1.230000      0.0000000E+00
  -1.220000      0.0000000E+00
  -1.210000      0.0000000E+00
  -1.200000      0.0000000E+00
  -1.190000      0.0000000E+00
  -1.180000      0.0000000E+00
  -1.170000      0.0000000E+00
  -1.160000      0.0000000E+00
  -1.150000      0.0000000E+00
  -1.140000      0.0000000E+00
  -1.130000      0.0000000E+00
  -1.120000      0.0000000E+00
  -1.110000      0.0000000E+00
  -1.100000      0.0000000E+00
  -1.090000      0.0000000E+00
  -1.080000      0.0000000E+00
  -1.070000      0.0000000E+00
  -1.060000      0.0000000E+00
  -1.050000      0.0000000E+00
  -1.040000      0.0000000E+00
  -1.030000      0.0000000E+00
  -1.020000      0.0000000E+00
  -1.010000      0.0000000E+00
  -1.000000      0.0000000E+00
 -0.9900000      0.0000000E+00
 -0.9800000      0.0000000E+00
 -0.9700000      0.0000000E+00
 -0.9600000      0.0000000E+00
 -0.9500000      0.0000000E+00
 -0.9400000      0.0000000E+00
 -0.9300000      0.0000000E+00
 -0.9200000      0.0000000E+00
 -0.9100000      0.0000000E+00
 -0.9000000      0.0000000E+00
 -0.8900000      0.0000000E+00
 -0.8800000      0.0000000E+00
 -0.8700000      0.0000000E+00
 -0.8600000      0.0000000E+00
 -0.8500000      0.0000000E+00
 -0.8400000      0.0000000E+00
 -0.8300000      0.0000000E+00
 -0.8200000      0.0000000E+00
 -0.8100000      0.0000000E+00
 -0.8000000      0.0000000E+00
 -0.7900000      0.0000000E+00
 -0.7800000      0.0000000E+00
 -0.7700000      0.0000000E+00
 -0.7600000      0.0000000E+00
 -0.7500000      0.0000000E+00
 -0.7400000      0.0000000E+00
 -0.7300000      0.0000000E+00
 -0.7200000      0.0000000E+00
 -0.7100000      0.0000000E+00
 -0.7000000      0.0000000E+00
 -0.6900000      0.0000000E+00
 -0.6800000      0.0000000E+00
 -0.6700000      0.0000000E+00
 -0.6600000      0.0000000E+00
 -0.6500000      0.0000000E+00
 -0.6400000      0.0000000E+00
 -0.6300000      0.0000000E+00
 -0.6200000      0.0000000E+00
 -0.6100000      0.0000000E+00
 -0.6000000      0.0000000E+00
 -0.5900000      0.0000000E+00
 -0.5800000      0.0000000E+00
 -0.5700000      0.0000000E+00
 -0.5600000      0.0000000E+00
 -0.5500000      0.0000000E+00
 -0.5400000      0.0000000E+00
 -0.5300000      0.0000000E+00
 -0.5200000      0.0000000E+00
 -0.5100000      0.0000000E+00
 -0.5000000      0.0000000E+00
 -0.4900000      0.0000000E+00
 -0.4800000      0.0000000E+00
 -0.4700000      0.0000000E+00
 -0.4600000      0.0000000E+00
 -0.4500000      0.0000000E+00
 -0.4400000      0.0000000E+00
 -0.4300000      0.0000000E+00
 -0.4200000      0.0000000E+00
 -0.4100000      0.0000000E+00
 -0.4000000      0.0000000E+00
 -0.3900000      0.0000000E+00
 -0.3800000      0.0000000E+00
 -0.3700000      0.0000000E+00
 -0.3600000      0.0000000E+00
 -0.3500000      0.0000000E+00
 -0.3400000      0.0000000E+00
 -0.3300000      0.0000000E+00
 -0.3200000      0.0000000E+00
 -0.3100000      0.0000000E+00
 -0.3000000      0.0000000E+00
 -0.2900000      0.0000000E+00
 -0.2800000      0.0000000E+00
 -0.2700000      1.2447645E-38
 -0.2600000      1.5856314E-38
 -0.2500000      1.9886739E-38
 -0.2400000      2.2817133E-38
 -0.2300000      2.2571463E-38
 -0.2200000      1.9077188E-38
 -0.2100000      0.0000000E+00
 -0.2000000      0.0000000E+00
 -0.1900000     -1.6703633E-38
 -0.1800000     -3.4399526E-38
 -0.1700000     -5.4670746E-38
 -0.1600000     -7.7424896E-38
 -0.1500000     -9.9041186E-38
 -0.1400000     -1.1824937E-37
 -0.1300000     -1.3422088E-37
 -0.1200000     -1.4497313E-37
 -0.1100000     -1.4763558E-37
 -0.1000000     -1.3963001E-37
 -9.0000004E-02 -1.2049643E-37
 -7.9999998E-02 -8.8487357E-38
 -7.0000000E-02 -4.3173804E-38
 -5.9999999E-02  1.2131059E-38
 -5.0000001E-02  7.4215009E-38
 -3.9999999E-02  1.4263260E-37
 -2.9999999E-02  2.2580609E-37
 -2.0000000E-02  3.2669050E-37
 -9.9999998E-03  4.3813159E-37
 -3.4694470E-17  5.5324470E-37
  9.9999998E-03  6.6390633E-37
  2.0000000E-02  7.6820877E-37
  2.9999999E-02  8.7006052E-37
  3.9999999E-02  9.6072027E-37
  5.0000001E-02  1.0249296E-36
  5.9999999E-02  1.0335874E-36
  7.0000000E-02  9.6945684E-37
  7.9999998E-02  8.5118582E-37
  9.0000004E-02  6.6953287E-37
  0.1000000      3.9456834E-37
  0.1100000     -1.5777949E-38
  0.1200000     -5.9031570E-37
  0.1300000     -1.2940422E-36
  0.1400000     -2.1798916E-36
  0.1500000     -3.2424678E-36
  0.1600000     -4.3364266E-36
  0.1700000     -5.4152397E-36
  0.1800000     -6.4213926E-36
  0.1900000     -7.2911716E-36
  0.2000000     -7.9702786E-36
  0.2100000     -8.4431295E-36
  0.2200000     -8.4597159E-36
  0.2300000     -7.9916906E-36
  0.2400000     -7.0974353E-36
  0.2500000     -5.6735510E-36
  0.2600000     -3.6118797E-36
  0.2700000     -5.4833069E-37
  0.2800000      3.5826684E-36
  0.2900000      8.7657117E-36
  0.3000000      1.5186922E-35
  0.3100000      2.2954337E-35
  0.3200000      3.2128439E-35
  0.3300000      4.3034185E-35
  0.3400000      5.5387021E-35
  0.3500000      6.9154367E-35
  0.3600000      8.4625135E-35
  0.3700000      1.0160855E-34
  0.3800000      1.2012326E-34
  0.3900000      1.4146355E-34
  0.4000000      1.6578788E-34
  0.4100000      1.9236958E-34
  0.4200000      2.2072395E-34
  0.4300000      2.4288758E-34
  0.4400000      2.5761119E-34
  0.4500000      2.7080261E-34
  0.4600000      2.8183184E-34
  0.4700000      2.9202308E-34
  0.4800000      3.0153512E-34
  0.4900000      3.0838321E-34
  0.5000000      3.1171470E-34
  0.5100000      3.1209129E-34
  0.5200000      3.1067200E-34
  0.5300000      3.0741425E-34
  0.5400000      3.0359695E-34
  0.5500000      2.9630291E-34
  0.5600000      2.8517658E-34
  0.5700000      2.7152234E-34
  0.5800000      2.5960708E-34
  0.5900000      2.4610258E-34
  0.6000000      2.2262892E-34
  0.6100000      1.8973862E-34
  0.6200000      1.5040116E-34
  0.6300000      1.0517995E-34
  0.6400000      5.0734503E-35
  0.6500000     -9.7766677E-36
  0.6600000     -7.9703700E-35
  0.6700000     -1.6518753E-34
  0.6800000     -2.6624109E-34
  0.6900000     -3.7666384E-34
  0.7000000     -4.9404223E-34
  0.7100000     -6.2164976E-34
  0.7200000     -7.5826650E-34
  0.7300000     -9.0416142E-34
  0.7400000     -1.0561883E-33
  0.7500000     -1.2138672E-33
  0.7600000     -1.3762653E-33
  0.7700000     -1.5376913E-33
  0.7800000     -1.6958774E-33
  0.7900000     -1.8520648E-33
  0.8000000     -2.0060768E-33
  0.8100000     -2.1549374E-33
  0.8200000     -2.2969817E-33
  0.8300000     -2.4307432E-33
  0.8400000     -2.5553269E-33
  0.8500000     -2.6700706E-33
  0.8600000     -2.7744168E-33
  0.8700000     -2.8678284E-33
  0.8800000     -2.9506455E-33
  0.8900000     -3.0214209E-33
  0.9000000     -3.0817664E-33
  0.9100000     -3.1341820E-33
  0.9200000     -3.1778369E-33
  0.9300000     -3.2138442E-33
  0.9400000     -3.2421306E-33
  0.9500000     -3.2621875E-33
  0.9600000     -3.2753942E-33
  0.9700000     -3.2818785E-33
  0.9800000     -3.2812529E-33
  0.9900000     -3.2734594E-33
   1.000000     -3.2577265E-33
   1.010000     -3.2334988E-33
   1.020000     -3.2001772E-33
   1.030000     -3.1571357E-33
   1.040000     -3.1039384E-33
   1.050000     -3.0406163E-33
   1.060000     -2.9677028E-33
   1.070000     -2.8863727E-33
   1.080000     -2.7985865E-33
   1.090000     -2.7072274E-33
   1.100000     -2.6161841E-33
   1.110000     -2.5300249E-33
   1.120000     -2.4551425E-33
   1.130000     -2.3989004E-33
   1.140000     -2.3687561E-33
   1.150000     -2.3733077E-33
   1.160000     -2.4215536E-33
   1.170000     -2.5228487E-33
   1.180000     -2.6864853E-33
   1.190000     -2.9212587E-33
   1.200000     -3.2352885E-33
   1.210000     -3.6355708E-33
   1.220000     -4.1276882E-33
   1.230000     -4.7157520E-33
   1.240000     -5.4020346E-33
   1.250000     -6.1866708E-33
   1.260000     -7.0678773E-33
   1.270000     -8.0418823E-33
   1.280000     -9.1030797E-33
   1.290000     -1.0244392E-32
   1.300000     -1.1457336E-32
   1.310000     -1.2732560E-32
   1.320000     -1.4060471E-32
   1.330000     -1.5431467E-32
   1.340000     -1.6836703E-32
   1.350000     -1.8269172E-32
   1.360000     -1.9723072E-32
   1.370000     -2.1191728E-32
   1.380000     -2.2672338E-32
   1.390000     -2.4165892E-32
   1.400000     -2.5674445E-32
   1.410000     -2.7202038E-32
   1.420000     -2.8753535E-32
   1.430000     -3.0334722E-32
   1.440000     -3.1951356E-32
   1.450000     -3.3608250E-32
   1.460000     -3.5308547E-32
   1.470000     -3.7052493E-32
   1.480000     -3.8834466E-32
   1.490000     -4.0647848E-32
   1.500000     -4.2481470E-32
   1.510000     -4.4312584E-32
   1.520000     -4.6113991E-32
   1.530000     -4.7854302E-32
   1.540000     -4.9495418E-32
   1.550000     -5.0994144E-32
   1.560000     -5.2303357E-32
   1.570000     -5.3373503E-32
   1.580000     -5.4154184E-32
   1.590000     -5.4596082E-32
   1.600000     -5.4652970E-32
   1.610000     -5.4283941E-32
   1.620000     -5.3454771E-32
   1.630000     -5.2140280E-32
   1.640000     -5.0325358E-32
   1.650000     -4.8005896E-32
   1.660000     -4.5189982E-32
   1.670000     -4.1897011E-32
   1.680000     -3.8157196E-32
   1.690000     -3.4010184E-32
   1.700000     -2.9503098E-32
   1.710000     -2.4688014E-32
   1.720000     -1.9618971E-32
   1.730000     -1.4348654E-32
   1.740000     -8.9249908E-33
   1.750000     -3.3877310E-33
   1.760000      2.2347499E-33
   1.770000      7.9281430E-33
   1.780000      1.3694445E-32
   1.790000      1.9553195E-32
   1.800000      2.5541714E-32
   1.810000      3.1714682E-32
   1.820000      3.8142306E-32
   1.830000      4.4907293E-32
   1.840000      5.2101042E-32
   1.850000      5.9819080E-32
   1.860000      6.8155562E-32
   1.870000      7.7197347E-32
   1.880000      8.7018191E-32
   1.890000      9.7673019E-32
   1.900000      1.0919299E-31
   1.910000      1.2158118E-31
   1.920000      1.3480959E-31
   1.930000      1.4881813E-31
   1.940000      1.6351518E-31
   1.950000      1.7877978E-31
   1.960000      1.9446599E-31
   1.970000      2.1040930E-31
   1.980000      2.2643454E-31
   1.990000      2.4236540E-31
   2.000000      2.5803500E-31
   2.010000      2.7329696E-31
   2.020000      2.8803660E-31
   2.030000      3.0218144E-31
   2.040000      3.1571061E-31
   2.050000      3.2866279E-31
   2.060000      3.4114151E-31
   2.070000      3.5331798E-31
   2.080000      3.6543110E-31
   2.090000      3.7778392E-31
   2.100000      3.9073726E-31
   2.110000      4.0470046E-31
   2.120000      4.2011933E-31
   2.130000      4.3746224E-31
   2.140000      4.5720510E-31
   2.150000      4.7981559E-31
   2.160000      5.0573806E-31
   2.170000      5.3537989E-31
   2.180000      5.6910040E-31
   2.190000      6.0720292E-31
   2.200000      6.4993130E-31
   2.210000      6.9747031E-31
   2.220000      7.4995190E-31
   2.230000      8.0746682E-31
   2.240000      8.7008004E-31
   2.250000      9.3785180E-31
   2.260000      1.0108612E-30
   2.270000      1.0892339E-30
   2.280000      1.1731688E-30
   2.290000      1.2629645E-30
   2.300000      1.3590465E-30
   2.310000      1.4619884E-30
   2.320000      1.5725286E-30
   2.330000      1.6915776E-30
   2.340000      1.8202225E-30
   2.350000      1.9597184E-30
   2.360000      2.1114720E-30
   2.370000      2.2770157E-30
   2.380000      2.4579728E-30
   2.390000      2.6560150E-30
   2.400000      2.8728170E-30
   2.410000      3.1100031E-30
   2.420000      3.3690883E-30
   2.430000      3.6514259E-30
   2.440000      3.9581611E-30
   2.450000      4.2901794E-30
   2.460000      4.6480739E-30
   2.470000      5.0321145E-30
   2.480000      5.4422406E-30
   2.490000      5.8780507E-30
   2.500000      6.3388162E-30
   2.510000      6.8235111E-30
   2.520000      7.3308387E-30
   2.530000      7.8592883E-30
   2.540000      8.4071807E-30
   2.550000      8.9727218E-30
   2.560000      9.5540660E-30
   2.570000      1.0149369E-29
   2.580000      1.0756823E-29
   2.590000      1.1374697E-29
   2.600000      1.2001350E-29
   2.610000      1.2635221E-29
   2.620000      1.3274823E-29
   2.630000      1.3918673E-29
   2.640000      1.4565245E-29
   2.650000      1.5212874E-29
   2.660000      1.5859657E-29
   2.670000      1.6503333E-29
   2.680000      1.7141157E-29
   2.690000      1.7769778E-29
   2.700000      1.8385105E-29
   2.710000      1.8982206E-29
   2.720000      1.9555210E-29
   2.730000      2.0097228E-29
   2.740000      2.0600326E-29
   2.750000      2.1055515E-29
   2.760000      2.1452765E-29
   2.770000      2.1781096E-29
   2.780000      2.2028675E-29
   2.790000      2.2182954E-29
   2.800000      2.2230836E-29
   2.810000      2.2158885E-29
   2.820000      2.1953523E-29
   2.830000      2.1601250E-29
   2.840000      2.1088865E-29
   2.850000      2.0403660E-29
   2.860000      1.9533629E-29
   2.870000      1.8467563E-29
   2.880000      1.7195222E-29
   2.890000      1.5707387E-29
   2.900000      1.3995877E-29
   2.910000      1.2053538E-29
   2.920000      9.8741826E-30
   2.930000      7.4524995E-30
   2.940000      4.7839178E-30
   2.950000      1.8645001E-30
   2.960000     -1.3092369E-30
   2.970000     -4.7404140E-30
   2.980000     -8.4319169E-30
   2.990000     -1.2386481E-29
   3.000000     -1.6606635E-29
   3.010000     -2.1094655E-29
   3.020000     -2.5852486E-29
   3.030000     -3.0881489E-29
   3.040000     -3.6182106E-29
   3.050000     -4.1753511E-29
   3.060000     -4.7593153E-29
   3.070000     -5.3696263E-29
   3.080000     -6.0055226E-29
   3.090000     -6.6659090E-29
   3.100000     -7.3492915E-29
   3.110000     -8.0537220E-29
   3.120000     -8.7767462E-29
   3.130000     -9.5153608E-29
   3.140000     -1.0265977E-28
   3.150000     -1.1024390E-28
   3.160000     -1.1785772E-28
   3.170000     -1.2544671E-28
   3.180000     -1.3295033E-28
   3.190000     -1.4030209E-28
   3.200000     -1.4743017E-28
   3.210000     -1.5425776E-28
   3.220000     -1.6070371E-28
   3.230000     -1.6668319E-28
   3.240000     -1.7210830E-28
   3.250000     -1.7688872E-28
   3.260000     -1.8093246E-28
   3.270000     -1.8414640E-28
   3.280000     -1.8643668E-28
   3.290000     -1.8770916E-28
   3.300000     -1.8786974E-28
   3.310000     -1.8682434E-28
   3.320000     -1.8447921E-28
   3.330000     -1.8074071E-28
   3.340000     -1.7551527E-28
   3.350000     -1.6870909E-28
   3.360000     -1.6022818E-28
   3.370000     -1.4997814E-28
   3.380000     -1.3786438E-28
   3.390000     -1.2379205E-28
   3.400000     -1.0766632E-28
   3.410000     -8.9393104E-29
   3.420000     -6.8879940E-29
   3.430000     -4.6037113E-29
   3.440000     -2.0778973E-29
   3.450000      6.9741279E-30
   3.460000      3.7293900E-29
   3.470000      7.0241698E-29
   3.480000      1.0586601E-28
   3.490000      1.4419990E-28
   3.500000      1.8525795E-28
   3.510000      2.2903354E-28
   3.520000      2.7549617E-28
   3.530000      3.2458872E-28
   3.540000      3.7622493E-28
   3.550000      4.3028727E-28
   3.560000      4.8662520E-28
   3.570000      5.4505349E-28
   3.580000      6.0535127E-28
   3.590000      6.6726106E-28
   3.600000      7.3048871E-28
   3.610000      7.9470302E-28
   3.620000      8.5953656E-28
   3.630000      9.2458610E-28
   3.640000      9.8941348E-28
   3.650000      1.0535456E-27
   3.660000      1.1164760E-27
   3.670000      1.1776659E-27
   3.680000      1.2365443E-27
   3.690000      1.2925086E-27
   3.700000      1.3449248E-27
   3.710000      1.3931284E-27
   3.720000      1.4364226E-27
   3.730000      1.4740799E-27
   3.740000      1.5053400E-27
   3.750000      1.5294098E-27
   3.760000      1.5454652E-27
   3.770000      1.5526491E-27
   3.780000      1.5500712E-27
   3.790000      1.5368112E-27
   3.800000      1.5119184E-27
   3.810000      1.4744155E-27
   3.820000      1.4233034E-27
   3.830000      1.3575632E-27
   3.840000      1.2761637E-27
   3.850000      1.1780695E-27
   3.860000      1.0622464E-27
   3.870000      9.2767423E-28
   3.880000      7.7335539E-28
   3.890000      5.9832639E-28
   3.900000      4.0167101E-28
   3.910000      1.8253231E-28
   3.920000     -5.9872461E-29
   3.930000     -3.2623888E-28
   3.940000     -6.1716146E-28
   3.950000     -9.3312076E-28
   3.960000     -1.2744707E-27
   3.970000     -1.6414223E-27
   3.980000     -2.0340349E-27
   3.990000     -2.4522019E-27
   4.000000     -2.8956434E-27
   4.010000     -3.3638909E-27
   4.020000     -3.8562799E-27
   4.030000     -4.3719415E-27
   4.040000     -4.9097905E-27
   4.050000     -5.4685178E-27
   4.060000     -6.0465788E-27
   4.070000     -6.6421849E-27
   4.080000     -7.2532956E-27
   4.090000     -7.8776058E-27
   4.100000     -8.5125349E-27
   4.110000     -9.1552115E-27
   4.120000     -9.8024680E-27
   4.130000     -1.0450829E-26
   4.140000     -1.1096481E-26
   4.150000     -1.1735283E-26
   4.160000     -1.2362744E-26
   4.170000     -1.2974007E-26
   4.180000     -1.3563842E-26
   4.190000     -1.4126645E-26
   4.200000     -1.4656424E-26
   4.210000     -1.5146795E-26
   4.220000     -1.5590990E-26
   4.230000     -1.5981858E-26
   4.240000     -1.6311870E-26
   4.250000     -1.6573131E-26
   4.260000     -1.6757404E-26
   4.270000     -1.6856126E-26
   4.280000     -1.6860430E-26
   4.290000     -1.6761200E-26
   4.300000     -1.6549083E-26
   4.310000     -1.6214521E-26
   4.320000     -1.5747827E-26
   4.330000     -1.5139208E-26
   4.340000     -1.4378825E-26
   4.350000     -1.3456853E-26
   4.360000     -1.2363529E-26
   4.370000     -1.1089207E-26
   4.380000     -9.6244266E-27
   4.390000     -7.9599771E-27
   4.400000     -6.0869505E-27
   4.410000     -3.9968477E-27
   4.420000     -1.6816059E-27
   4.430000      8.6629003E-28
   4.440000      3.6537526E-27
   4.450000      6.6870129E-27
   4.460000      9.9715031E-27
   4.470000      1.3511798E-26
   4.480000      1.7311503E-26
   4.490000      2.1373139E-26
   4.500000      2.5698065E-26
   4.510000      3.0286333E-26
   4.520000      3.5136583E-26
   4.530000      4.0245908E-26
   4.540000      4.5609731E-26
   4.550000      5.1221629E-26
   4.560000      5.7073279E-26
   4.570000      6.3154226E-26
   4.580000      6.9451776E-26
   4.590000      7.5950862E-26
   4.600000      8.2633864E-26
   4.610000      8.9480523E-26
   4.620000      9.6467736E-26
   4.630000      1.0356949E-25
   4.640000      1.1075668E-25
   4.650000      1.1799704E-25
   4.660000      1.2525500E-25
   4.670000      1.3249160E-25
   4.680000      1.3966442E-25
   4.690000      1.4672755E-25
   4.700000      1.5363139E-25
   4.710000      1.6032275E-25
   4.720000      1.6674475E-25
   4.730000      1.7283674E-25
   4.740000      1.7853441E-25
   4.750000      1.8376979E-25
   4.760000      1.8847113E-25
   4.770000      1.9256313E-25
   4.780000      1.9596684E-25
   4.790000      1.9859973E-25
   4.800000      2.0037599E-25
   4.810000      2.0120644E-25
   4.820000      2.0099865E-25
   4.830000      1.9965712E-25
   4.840000      1.9708350E-25
   4.850000      1.9317690E-25
   4.860000      1.8783398E-25
   4.870000      1.8094926E-25
   4.880000      1.7241537E-25
   4.890000      1.6212348E-25
   4.900000      1.4996359E-25
   4.910000      1.3582520E-25
   4.920000      1.1959744E-25
   4.930000      1.0117007E-25
   4.940000      8.0433688E-26
   4.950000      5.7280220E-26
   4.960000      3.1604020E-26
   4.970000      3.3024395E-27
   4.980000     -2.7723694E-26
   4.990000     -6.1569232E-26
   5.000000     -9.8323253E-26
   5.010000     -1.3806865E-25
   5.020000     -1.8088133E-25
   5.030000     -2.2682909E-25
   5.040000     -2.7597034E-25
   5.050000     -3.2835320E-25
   5.060000     -3.8401465E-25
   5.070000     -4.4297922E-25
   5.080000     -5.0525792E-25
   5.090000     -5.7084702E-25
   5.100000     -6.3972690E-25
   5.110000     -7.1186083E-25
   5.120000     -7.8719335E-25
   5.130000     -8.6564991E-25
   5.140000     -9.4713451E-25
   5.150000     -1.0315291E-24
   5.160000     -1.1186921E-24
   5.170000     -1.2084571E-24
   5.180000     -1.3006312E-24
   5.190000     -1.3949940E-24
   5.200000     -1.4912962E-24
   5.210000     -1.5892584E-24
   5.220000     -1.6885696E-24
   5.230000     -1.7888855E-24
   5.240000     -1.8898275E-24
   5.250000     -1.9909830E-24
   5.260000     -2.0919015E-24
   5.270000     -2.1920952E-24
   5.280000     -2.2910380E-24
   5.290000     -2.3881644E-24
   5.300000     -2.4828673E-24
   5.310000     -2.5745000E-24
   5.320000     -2.6623734E-24
   5.330000     -2.7457554E-24
   5.340000     -2.8238734E-24
   5.350000     -2.8959102E-24
   5.360000     -2.9610074E-24
   5.370000     -3.0182652E-24
   5.380000     -3.0667421E-24
   5.390000     -3.1054539E-24
   5.400000     -3.1333768E-24
   5.410000     -3.1494485E-24
   5.420000     -3.1525686E-24
   5.430000     -3.1416017E-24
   5.440000     -3.1153780E-24
   5.450000     -3.0726955E-24
   5.460000     -3.0123235E-24
   5.470000     -2.9330044E-24
   5.480000     -2.8334564E-24
   5.490000     -2.7123789E-24
   5.500000     -2.5684552E-24
   5.510000     -2.4003578E-24
   5.520000     -2.2067488E-24
   5.530000     -1.9862894E-24
   5.540000     -1.7376438E-24
   5.550000     -1.4594847E-24
   5.560000     -1.1505006E-24
   5.570000     -8.0940304E-25
   5.580000     -4.3493131E-25
   5.590000     -2.5857711E-26
   5.600000      4.1899888E-25
   5.610000      9.0076497E-25
   5.620000      1.4205074E-24
   5.630000      1.9792222E-24
   5.640000      2.5778237E-24
   5.650000      3.2171345E-24
   5.660000      3.8978761E-24
   5.670000      4.6206557E-24
   5.680000      5.3859541E-24
   5.690000      6.1941193E-24
   5.700000      7.0453436E-24
   5.710000      7.9396610E-24
   5.720000      8.8769311E-24
   5.730000      9.8568288E-24
   5.740000      1.0878824E-23
   5.750000      1.1942168E-23
   5.760000      1.3045885E-23
   5.770000      1.4188754E-23
   5.780000      1.5369300E-23
   5.790000      1.6585771E-23
   5.800000      1.7836125E-23
   5.810000      1.9118028E-23
   5.820000      2.0428828E-23
   5.830000      2.1765540E-23
   5.840000      2.3124837E-23
   5.850000      2.4503036E-23
   5.860000      2.5896082E-23
   5.870000      2.7299545E-23
   5.880000      2.8708586E-23
   5.890000      3.0117977E-23
   5.900000      3.1522058E-23
   5.910000      3.2914745E-23
   5.920000      3.4289527E-23
   5.930000      3.5639439E-23
   5.940000      3.6957054E-23
   5.950000      3.8234514E-23
   5.960000      3.9463474E-23
   5.970000      4.0635140E-23
   5.980000      4.1740233E-23
   5.990000      4.2769025E-23
   6.000000      4.3711313E-23
   6.010000      4.4556435E-23
   6.020000      4.5293279E-23
   6.030000      4.5910285E-23
   6.040000      4.6395472E-23
   6.050000      4.6736424E-23
   6.060000      4.6920314E-23
   6.070000      4.6933952E-23
   6.080000      4.6763760E-23
   6.090000      4.6395844E-23
   6.100000      4.5816000E-23
   6.110000      4.5009740E-23
   6.120000      4.3962341E-23
   6.130000      4.2658862E-23
   6.140000      4.1084214E-23
   6.150000      3.9223190E-23
   6.160000      3.7060518E-23
   6.170000      3.4580911E-23
   6.180000      3.1769129E-23
   6.190000      2.8610003E-23
   6.200000      2.5088593E-23
   6.210000      2.1190194E-23
   6.220000      1.6900397E-23
   6.230000      1.2205208E-23
   6.240000      7.0910936E-24
   6.250000      1.5450982E-24
   6.260000     -4.4450628E-24
   6.270000     -1.0890928E-23
   6.280000     -1.7803188E-23
   6.290000     -2.5191550E-23
   6.300000     -3.3064679E-23
   6.310000     -4.1430053E-23
   6.320000     -5.0293824E-23
   6.330000     -5.9660717E-23
   6.340000     -6.9533943E-23
   6.350000     -7.9915068E-23
   6.360000     -9.0803867E-23
   6.370000     -1.0219812E-22
   6.380000     -1.1409353E-22
   6.390000     -1.2648366E-22
   6.400000     -1.3935969E-22
   6.410000     -1.5271036E-22
   6.420000     -1.6652180E-22
   6.430000     -1.8077732E-22
   6.440000     -1.9545738E-22
   6.450000     -2.1053942E-22
   6.460000     -2.2599767E-22
   6.470000     -2.4180313E-22
   6.480000     -2.5792324E-22
   6.490000     -2.7432190E-22
   6.500000     -2.9095939E-22
   6.510000     -3.0779207E-22
   6.520000     -3.2477244E-22
   6.530000     -3.4184892E-22
   6.540000     -3.5896579E-22
   6.550000     -3.7606307E-22
   6.560000     -3.9307651E-22
   6.570000     -4.0993734E-22
   6.580000     -4.2657251E-22
   6.590000     -4.4290423E-22
   6.600000     -4.5885032E-22
   6.610000     -4.7432396E-22
   6.620000     -4.8923376E-22
   6.630000     -5.0348375E-22
   6.640000     -5.1697339E-22
   6.650000     -5.2959764E-22
   6.660000     -5.4124693E-22
   6.670000     -5.5180727E-22
   6.680000     -5.6116066E-22
   6.690000     -5.6918473E-22
   6.700000     -5.7575330E-22
   6.710000     -5.8073617E-22
   6.720000     -5.8399971E-22
   6.730000     -5.8540694E-22
   6.740000     -5.8481775E-22
   6.750000     -5.8208867E-22
   6.760000     -5.7707440E-22
   6.770000     -5.6962730E-22
   6.780000     -5.5959803E-22
   6.790000     -5.4683560E-22
   6.800000     -5.3118819E-22
   6.810000     -5.1250377E-22
   6.820000     -4.9062998E-22
   6.830000     -4.6541572E-22
   6.840000     -4.3671052E-22
   6.850000     -4.0436601E-22
   6.860000     -3.6823636E-22
   6.870000     -3.2817853E-22
   6.880000     -2.8405397E-22
   6.890000     -2.3572868E-22
   6.900000     -1.8307423E-22
   6.910000     -1.2596874E-22
   6.920000     -6.4297017E-23
   6.930000      2.0478462E-24
   6.940000      7.3163593E-23
   6.950000      1.4913807E-22
   6.960000      2.3004747E-22
   6.970000      3.1595634E-22
   6.980000      4.0691621E-22
   6.990000      5.0296459E-22
   7.000000      6.0412326E-22
   7.010000      7.1039734E-22
   7.020000      8.2177450E-22
   7.030000      9.3822396E-22
   7.040000      1.0596949E-21
   7.050000      1.1861151E-21
   7.060000      1.3173902E-21