  -2.600000      0.0000000E+00
  -2.590000      0.0000000E+00
  -2.580000      0.0000000E+00
  -2.570000      0.0000000E+00
  -2.560000      0.0000000E+00
  -2.550000      0.0000000E+00
  -2.540000      0.0000000E+00
  -2.530000      0.0000000E+00
  -2.520000      0.0000000E+00
  -2.510000      0.0000000E+00
  -2.500000      0.0000000E+00
  -2.490000      0.0000000E+00
  -2.480000      0.0000000E+00
  -2.470000      0.0000000E+00
  -2.460000      0.0000000E+00
  -2.450000      0.0000000E+00
  -2.440000      0.0000000E+00
  -2.430000      0.0000000E+00
  -2.420000      0.0000000E+00
  -2.410000      0.0000000E+00
  -2.400000      0.0000000E+00
  -2.390000      0.0000000E+00
  -2.380000      0.0000000E+00
  -2.370000      0.0000000E+00
  -2.360000      0.0000000E+00
  -2.350000      0.0000000E+00
  -2.340000      0.0000000E+00
  -2.330000      0.0000000E+00
  -2.320000      0.0000000E+00
  -2.310000      0.0000000E+00
  -2.300000      0.0000000E+00
  -2.290000      0.0000000E+00
  -2.280000      0.0000000E+00
  -2.270000      0.0000000E+00
  -2.260000      0.0000000E+00
  -2.250000      0.0000000E+00
  -2.240000      0.0000000E+00
  -2.230000      0.0000000E+00
  -2.220000      0.0000000E+00
  -2.210000      0.0000000E+00
  -2.200000      0.0000000E+00
  -2.190000      0.0000000E+00
  -2.180000      0.0000000E+00
  -2.170000      0.0000000E+00
  -2.160000      0.0000000E+00
  -2.150000      0.0000000E+00
  -2.140000      0.0000000E+00
  -2.130000      0.0000000E+00
  -2.120000      0.0000000E+00
  -2.110000      0.0000000E+00
  -2.100000      0.0000000E+00
  -2.090000      0.0000000E+00
  -2.080000      0.0000000E+00
  -2.070000      0.0000000E+00
  -2.060000      0.0000000E+00
  -2.050000      0.0000000E+00
  -2.040000      0.0000000E+00
  -2.030000      0.0000000E+00
  -2.020000      0.0000000E+00
  -2.010000      0.0000000E+00
  -2.000000      0.0000000E+00
  -1.990000      0.0000000E+00
  -1.980000      0.0000000E+00
  -1.970000      0.0000000E+00
  -1.960000      0.0000000E+00
  -1.950000      0.0000000E+00
  -1.940000      0.0000000E+00
  -1.930000      0.0000000E+00
  -1.920000      0.0000000E+00
  -1.910000      0.0000000E+00
  -1.900000      0.0000000E+00
  -1.890000      0.0000000E+00
  -1.880000      0.0000000E+00
  -1.870000      0.0000000E+00
  -1.860000      0.0000000E+00
  -1.850000      0.0000000E+00
  -1.840000      0.0000000E+00
  -1.830000      0.0000000E+00
  -1.820000      0.0000000E+00
  -1.810000      0.0000000E+00
  -1.800000      0.0000000E+00
  -1.790000      0.0000000E+00
  -1.780000      0.0000000E+00
  -1.770000      0.0000000E+00
  -1.760000      0.0000000E+00
  -1.750000      0.0000000E+00
  -1.740000      0.0000000E+00
  -1.730000      0.0000000E+00
  -1.720000      0.0000000E+00
  -1.710000      0.0000000E+00
  -1.700000      0.0000000E+00
  -1.690000      0.0000000E+00
  -1.680000      0.0000000E+00
  -1.670000      0.0000000E+00
  -1.660000      0.0000000E+00
  -1.650000      0.0000000E+00
  -1.640000      0.0000000E+00
  -1.630000      0.0000000E+00
  -1.620000      0.0000000E+00
  -1.610000      0.0000000E+00
  -1.600000      0.0000000E+00
  -1.590000      0.0000000E+00
  -1.580000      0.0000000E+00
  -1.570000      0.0000000E+00
  -1.560000      0.0000000E+00
  -1.550000      0.0000000E+00
  -1.540000      0.0000000E+00
  -1.530000      0.0000000E+00
  -1.520000      0.0000000E+00
  -1.510000      0.0000000E+00
  -1.500000      0.0000000E+00
  -1.490000      0.0000000E+00
  -1.480000      0.0000000E+00
  -1.470000      0.0000000E+00
  -1.460000      0.0000000E+00
  -1.450000      0.0000000E+00
  -1.440000      0.0000000E+00
  -1.430000      0.0000000E+00
  -1.420000      0.0000000E+00
  -1.410000      0.0000000E+00
  -1.400000      0.0000000E+00
  -1.390000      0.0000000E+00
  -1.380000      0.0000000E+00
  -1.370000      0.0000000E+00
  -1.360000      0.0000000E+00
  -1.350000      0.0000000E+00
  -1.340000      0.0000000E+00
  -1.330000      0.0000000E+00
  -1.320000      0.0000000E+00
  -1.310000      0.0000000E+00
  -1.300000      0.0000000E+00
  -1.290000      0.0000000E+00
  -1.280000      0.0000000E+00
  -1.270000      0.0000000E+00
  -1.260000      0.0000000E+00
  -1.250000      0.0000000E+00
  -1.240000      0.0000000E+00
  -1.230000      0.0000000E+00
  -1.220000      0.0000000E+00
  -1.210000      0.0000000E+00
  -1.200000      0.0000000E+00
  -1.190000      0.0000000E+00
  -1.180000      0.0000000E+00
  -1.170000      0.0000000E+00
  -1.160000      0.0000000E+00
  -1.150000      0.0000000E+00
  -1.140000      0.0000000E+00
  -1.130000      0.0000000E+00
  -1.120000      0.0000000E+00
  -1.110000      0.0000000E+00
  -1.100000      0.0000000E+00
  -1.090000      0.0000000E+00
  -1.080000      0.0000000E+00
  -1.070000      0.0000000E+00
  -1.060000      0.0000000E+00
  -1.050000      0.0000000E+00
  -1.040000      0.0000000E+00
  -1.030000      0.0000000E+00
  -1.020000      0.0000000E+00
  -1.010000      0.0000000E+00
  -1.000000      0.0000000E+00
 -0.9900000      0.0000000E+00
 -0.9800000      0.0000000E+00
 -0.9700000      0.0000000E+00
 -0.9600000      0.0000000E+00
 -0.9500000      0.0000000E+00
 -0.9400000      0.0000000E+00
 -0.9300000      0.0000000E+00
 -0.9200000      0.0000000E+00
 -0.9100000      0.0000000E+00
 -0.9000000      0.0000000E+00
 -0.8900000      0.0000000E+00
 -0.8800000      0.0000000E+00
 -0.8700000      0.0000000E+00
 -0.8600000      0.0000000E+00
 -0.8500000      0.0000000E+00
 -0.8400000      0.0000000E+00
 -0.8300000      0.0000000E+00
 -0.8200000      0.0000000E+00
 -0.8100000      0.0000000E+00
 -0.8000000      0.0000000E+00
 -0.7900000      0.0000000E+00
 -0.7800000      0.0000000E+00
 -0.7700000      0.0000000E+00
 -0.7600000      0.0000000E+00
 -0.7500000      0.0000000E+00
 -0.7400000      0.0000000E+00
 -0.7300000      0.0000000E+00
 -0.7200000      0.0000000E+00
 -0.7100000      0.0000000E+00
 -0.7000000      0.0000000E+00
 -0.6900000      0.0000000E+00
 -0.6800000      0.0000000E+00
 -0.6700000      0.0000000E+00
 -0.6600000      0.0000000E+00
 -0.6500000      0.0000000E+00
 -0.6400000      0.0000000E+00
 -0.6300000      0.0000000E+00
 -0.6200000      0.0000000E+00
 -0.6100000      0.0000000E+00
 -0.6000000      0.0000000E+00
 -0.5900000      0.0000000E+00
 -0.5800000      0.0000000E+00
 -0.5700000      0.0000000E+00
 -0.5600000      0.0000000E+00
 -0.5500000      0.0000000E+00
 -0.5400000      0.0000000E+00
 -0.5300000      0.0000000E+00
 -0.5200000      0.0000000E+00
 -0.5100000      0.0000000E+00
 -0.5000000      0.0000000E+00
 -0.4900000      0.0000000E+00
 -0.4800000      0.0000000E+00
 -0.4700000      0.0000000E+00
 -0.4600000      0.0000000E+00
 -0.4500000      0.0000000E+00
 -0.4400000      0.0000000E+00
 -0.4300000      0.0000000E+00
 -0.4200000      0.0000000E+00
 -0.4100000      0.0000000E+00
 -0.4000000      0.0000000E+00
 -0.3900000      0.0000000E+00
 -0.3800000      0.0000000E+00
 -0.3700000      0.0000000E+00
 -0.3600000      0.0000000E+00
 -0.3500000      0.0000000E+00
 -0.3400000      0.0000000E+00
 -0.3300000      0.0000000E+00
 -0.3200000      0.0000000E+00
 -0.3100000      0.0000000E+00
 -0.3000000      0.0000000E+00
 -0.2900000      0.0000000E+00
 -0.2800000      0.0000000E+00
 -0.2700000      0.0000000E+00
 -0.2600000      0.0000000E+00
 -0.2500000     -1.2244396E-38
 -0.2400000     -1.3820134E-38
 -0.2300000     -1.2053211E-38
 -0.2200000      0.0000000E+00
 -0.2100000      0.0000000E+00
 -0.2000000      1.8730448E-38
 -0.1900000      3.9005395E-38
 -0.1800000      6.3668921E-38
 -0.1700000      8.6252135E-38
 -0.1600000      1.0022212E-37
 -0.1500000      1.0433504E-37
 -0.1400000      9.6079704E-38
 -0.1300000      7.2267518E-38
 -0.1200000      3.1891768E-38
 -0.1100000     -2.1146564E-38
 -0.1000000     -8.6656191E-38
 -9.0000004E-02 -1.6391660E-37
 -7.9999998E-02 -2.4608474E-37
 -7.0000000E-02 -3.2770055E-37
 -5.9999999E-02 -4.0362109E-37
 -5.0000001E-02 -4.6282781E-37
 -3.9999999E-02 -4.9544089E-37
 -2.9999999E-02 -4.9951950E-37
 -2.0000000E-02 -4.7546510E-37
 -9.9999998E-03 -3.9394397E-37
 -3.4694470E-17 -2.3816121E-37
  9.9999998E-03 -6.8116984E-38
  2.0000000E-02  8.3718772E-38
  2.9999999E-02  2.0432627E-37
  3.9999999E-02  2.7660515E-37
  5.0000001E-02  3.3393411E-37
  5.9999999E-02  4.1162526E-37
  7.0000000E-02  3.5626249E-37
  7.9999998E-02  1.1606868E-37
  9.0000004E-02 -1.6335017E-37
  0.1000000      7.2534835E-38
  0.1100000      8.4959278E-37
  0.1200000      1.8051207E-36
  0.1300000      2.8504380E-36
  0.1400000      3.8034908E-36
  0.1500000      4.7167253E-36
  0.1600000      5.3626402E-36
  0.1700000      5.6776747E-36
  0.1800000      5.7097335E-36
  0.1900000      5.2023937E-36
  0.2000000      3.9413313E-36
  0.2100000      2.0958207E-36
  0.2200000     -2.1765306E-37
  0.2300000     -3.2316176E-36
  0.2400000     -6.8049428E-36
  0.2500000     -1.0759386E-35
  0.2600000     -1.5171644E-35
  0.2700000     -1.9946356E-35
  0.2800000     -2.5090551E-35
  0.2900000     -3.0824690E-35
  0.3000000     -3.7060961E-35
  0.3100000     -4.3975003E-35
  0.3200000     -5.1958773E-35
  0.3300000     -6.0891044E-35
  0.3400000     -6.9651989E-35
  0.3500000     -7.8656913E-35
  0.3600000     -8.8949755E-35
  0.3700000     -1.0013414E-34
  0.3800000     -1.1424754E-34
  0.3900000     -1.3157323E-34
  0.4000000     -1.4967331E-34
  0.4100000     -1.6798263E-34
  0.4200000     -1.8727822E-34
  0.4300000     -2.0817803E-34
  0.4400000     -2.2763255E-34
  0.4500000     -2.3996976E-34
  0.4600000     -2.4745109E-34
  0.4700000     -2.5427261E-34
  0.4800000     -2.6111327E-34
  0.4900000     -2.6391194E-34
  0.5000000     -2.5735931E-34
  0.5100000     -2.4021422E-34
  0.5200000     -2.1611799E-34
  0.5300000     -1.8174517E-34
  0.5400000     -1.3340038E-34
  0.5500000     -7.5513596E-35
  0.5600000     -1.4480449E-35
  0.5700000      4.1253788E-35
  0.5800000      9.5283707E-35
  0.5900000      1.3872888E-34
  0.6000000      1.6460141E-34
  0.6100000      1.8260290E-34
  0.6200000      1.9746930E-34
  0.6300000      2.1790368E-34
  0.6400000      2.4796528E-34
  0.6500000      2.9351795E-34
  0.6600000      3.6257513E-34
  0.6700000      4.5526749E-34
  0.6800000      5.7299137E-34
  0.6900000      7.0731231E-34
  0.7000000      8.4224106E-34
  0.7100000      9.7266592E-34
  0.7200000      1.0967815E-33
  0.7300000      1.2071595E-33
  0.7400000      1.3057607E-33
  0.7500000      1.3900804E-33
  0.7600000      1.4539835E-33
  0.7700000      1.5002228E-33
  0.7800000      1.5380155E-33
  0.7900000      1.5635230E-33
  0.8000000      1.5724116E-33
  0.8100000      1.5772155E-33
  0.8200000      1.5839685E-33
  0.8300000      1.5942304E-33
  0.8400000      1.6127553E-33
  0.8500000      1.6450208E-33
  0.8600000      1.6919728E-33
  0.8700000      1.7513185E-33
  0.8800000      1.8172289E-33
  0.8900000      1.8848795E-33
  0.9000000      1.9480876E-33
  0.9100000      2.0006732E-33
  0.9200000      2.0377615E-33
  0.9300000      2.0548969E-33
  0.9400000      2.0503860E-33
  0.9500000      2.0240047E-33
  0.9600000      1.9773575E-33
  0.9700000      1.9094401E-33
  0.9800000      1.8250705E-33
  0.9900000      1.7355638E-33
   1.000000      1.6489420E-33
   1.010000      1.5752758E-33
   1.020000      1.5204425E-33
   1.030000      1.4869354E-33
   1.040000      1.4778173E-33
   1.050000      1.4932223E-33
   1.060000      1.5314931E-33
   1.070000      1.5899110E-33
   1.080000      1.6654681E-33
   1.090000      1.7557500E-33
   1.100000      1.8597382E-33
   1.110000      1.9784136E-33
   1.120000      2.1151614E-33
   1.130000      2.2759591E-33
   1.140000      2.4684338E-33
   1.150000      2.7019810E-33
   1.160000      2.9861480E-33
   1.170000      3.3297292E-33
   1.180000      3.7407051E-33
   1.190000      4.2240728E-33
   1.200000      4.7814904E-33
   1.210000      5.4110422E-33
   1.220000      6.1065539E-33
   1.230000      6.8584607E-33
   1.240000      7.6549199E-33
   1.250000      8.4821806E-33
   1.260000      9.3260497E-33
   1.270000      1.0173123E-32
   1.280000      1.1011884E-32
   1.290000      1.1833683E-32
   1.300000      1.2633358E-32
   1.310000      1.3409415E-32
   1.320000      1.4163855E-32
   1.330000      1.4901645E-32
   1.340000      1.5629830E-32
   1.350000      1.6356303E-32
   1.360000      1.7088724E-32
   1.370000      1.7833497E-32
   1.380000      1.8594540E-32
   1.390000      1.9372544E-32
   1.400000      2.0164655E-32
   1.410000      2.0964273E-32
   1.420000      2.1761117E-32
   1.430000      2.2541788E-32
   1.440000      2.3290361E-32
   1.450000      2.3989058E-32
   1.460000      2.4618856E-32
   1.470000      2.5160187E-32
   1.480000      2.5593421E-32
   1.490000      2.5899693E-32
   1.500000      2.6059196E-32
   1.510000      2.6051676E-32
   1.520000      2.5859868E-32
   1.530000      2.5465190E-32
   1.540000      2.4850424E-32
   1.550000      2.3999691E-32
   1.560000      2.2895913E-32
   1.570000      2.1524933E-32
   1.580000      1.9875314E-32
   1.590000      1.7939360E-32
   1.600000      1.5713891E-32
   1.610000      1.3201520E-32
   1.620000      1.0410883E-32
   1.630000      7.3564391E-33
   1.640000      4.0585838E-33
   1.650000      5.4237465E-34
   1.660000     -3.1635984E-33
   1.670000     -7.0293475E-33
   1.680000     -1.1026050E-32
   1.690000     -1.5128305E-32
   1.700000     -1.9316775E-32
   1.710000     -2.3580536E-32
   1.720000     -2.7918770E-32
   1.730000     -3.2341846E-32
   1.740000     -3.6871937E-32
   1.750000     -4.1541988E-32
   1.760000     -4.6394579E-32
   1.770000     -5.1479893E-32
   1.780000     -5.6852291E-32
   1.790000     -6.2566939E-32
   1.800000     -6.8676283E-32
   1.810000     -7.5225256E-32
   1.820000     -8.2248429E-32
   1.830000     -8.9767666E-32
   1.840000     -9.7788840E-32
   1.850000     -1.0630062E-31
   1.860000     -1.1527405E-31
   1.870000     -1.2466308E-31
   1.880000     -1.3440625E-31
   1.890000     -1.4442897E-31
   1.900000     -1.5464700E-31
   1.910000     -1.6497024E-31
   1.920000     -1.7530721E-31
   1.930000     -1.8556983E-31
   1.940000     -1.9567821E-31
   1.950000     -2.0556544E-31
   1.960000     -2.1518202E-31
   1.970000     -2.2450019E-31
   1.980000     -2.3351724E-31
   1.990000     -2.4225845E-31
   2.000000     -2.5077912E-31
   2.010000     -2.5916549E-31
   2.020000     -2.6753466E-31
   2.030000     -2.7603320E-31
   2.040000     -2.8483491E-31
   2.050000     -2.9413690E-31
   2.060000     -3.0415472E-31
   2.070000     -3.1511717E-31
   2.080000     -3.2726000E-31
   2.090000     -3.4081912E-31
   2.100000     -3.5602423E-31
   2.110000     -3.7309321E-31
   2.120000     -3.9222765E-31
   2.130000     -4.1360977E-31
   2.140000     -4.3740107E-31
   2.150000     -4.6374493E-31
   2.160000     -4.9277034E-31
   2.170000     -5.2459858E-31
   2.180000     -5.5935287E-31
   2.190000     -5.9717031E-31
   2.200000     -6.3821543E-31
   2.210000     -6.8269439E-31
   2.220000     -7.3087104E-31
   2.230000     -7.8308011E-31
   2.240000     -8.3974063E-31
   2.250000     -9.0136578E-31
   2.260000     -9.6856879E-31
   2.270000     -1.0420670E-30
   2.280000     -1.1226790E-30
   2.290000     -1.2113184E-30
   2.300000     -1.3089811E-30
   2.310000     -1.4167288E-30
   2.320000     -1.5356695E-30
   2.330000     -1.6669332E-30
   2.340000     -1.8116448E-30
   2.350000     -1.9708983E-30
   2.360000     -2.1457259E-30
   2.370000     -2.3370750E-30
   2.380000     -2.5457822E-30
   2.390000     -2.7725524E-30
   2.400000     -3.0179441E-30
   2.410000     -3.2823583E-30
   2.420000     -3.5660342E-30
   2.430000     -3.8690514E-30
   2.440000     -4.1913348E-30
   2.450000     -4.5326660E-30
   2.460000     -4.8926983E-30
   2.470000     -5.2709738E-30
   2.480000     -5.6669465E-30
   2.490000     -6.0800074E-30
   2.500000     -6.5094980E-30
   2.510000     -6.9547309E-30
   2.520000     -7.4149928E-30
   2.530000     -7.8895540E-30
   2.540000     -8.3776666E-30
   2.550000     -8.8785438E-30
   2.560000     -9.3913400E-30
   2.570000     -9.9151124E-30
   2.580000     -1.0448790E-29
   2.590000     -1.0991105E-29
   2.600000     -1.1540542E-29
   2.610000     -1.2095279E-29
   2.620000     -1.2653117E-29
   2.630000     -1.3211417E-29
   2.640000     -1.3767036E-29
   2.650000     -1.4316278E-29
   2.660000     -1.4854854E-29
   2.670000     -1.5377855E-29
   2.680000     -1.5879729E-29
   2.690000     -1.6354300E-29
   2.700000     -1.6794786E-29
   2.710000     -1.7193836E-29
   2.720000     -1.7543597E-29
   2.730000     -1.7835784E-29
   2.740000     -1.8061777E-29
   2.750000     -1.8212698E-29
   2.760000     -1.8279534E-29
   2.770000     -1.8253230E-29
   2.780000     -1.8124775E-29
   2.790000     -1.7885309E-29
   2.800000     -1.7526191E-29
   2.810000     -1.7039056E-29
   2.820000     -1.6415858E-29
   2.830000     -1.5648912E-29
   2.840000     -1.4730875E-29
   2.850000     -1.3654756E-29
   2.860000     -1.2413876E-29
   2.870000     -1.1001827E-29
   2.880000     -9.4124454E-30
   2.890000     -7.6397699E-30
   2.900000     -5.6780139E-30
   2.910000     -3.5215249E-30
   2.920000     -1.1647971E-30
   2.930000      1.3974760E-30
   2.940000      4.1703771E-30
   2.950000      7.1586538E-30
   2.960000      1.0366571E-29
   2.970000      1.3797776E-29
   2.980000      1.7455082E-29
   2.990000      2.1340196E-29
   3.000000      2.5453475E-29
   3.010000      2.9793613E-29
   3.020000      3.4357347E-29
   3.030000      3.9139164E-29
   3.040000      4.4130993E-29
   3.050000      4.9321928E-29
   3.060000      5.4697987E-29
   3.070000      6.0241915E-29
   3.080000      6.5933026E-29
   3.090000      7.1747108E-29
   3.100000      7.7656348E-29
   3.110000      8.3629385E-29
   3.120000      8.9631341E-29
   3.130000      9.5623981E-29
   3.140000      1.0156584E-28
   3.150000      1.0741258E-28
   3.160000      1.1311709E-28
   3.170000      1.1862976E-28
   3.180000      1.2389880E-28
   3.190000      1.2887045E-28
   3.200000      1.3348915E-28
   3.210000      1.3769780E-28
   3.220000      1.4143795E-28
   3.230000      1.4464981E-28
   3.240000      1.4727237E-28
   3.250000      1.4924343E-28
   3.260000      1.5049958E-28
   3.270000      1.5097628E-28
   3.280000      1.5060773E-28
   3.290000      1.4932704E-28
   3.300000      1.4706612E-28
   3.310000      1.4375583E-28
   3.320000      1.3932625E-28
   3.330000      1.3370702E-28
   3.340000      1.2682758E-28
   3.350000      1.1861782E-28
   3.360000      1.0900892E-28
   3.370000      9.7934091E-29
   3.380000      8.5329464E-29
   3.390000      7.1135294E-29
   3.400000      5.5297276E-29
   3.410000      3.7767947E-29
   3.420000      1.8508027E-29
   3.430000     -2.5121415E-30
   3.440000     -2.5310776E-29
   3.450000     -4.9893421E-29
   3.460000     -7.6251479E-29
   3.470000     -1.0436065E-28
   3.480000     -1.3417983E-28
   3.490000     -1.6564979E-28
   3.500000     -1.9869250E-28
   3.510000     -2.3321009E-28
   3.520000     -2.6908390E-28
   3.530000     -3.0617404E-28
   3.540000     -3.4431915E-28
   3.550000     -3.8333599E-28
   3.560000     -4.2301876E-28
   3.570000     -4.6313916E-28
   3.580000     -5.0344637E-28
   3.590000     -5.4366662E-28
   3.600000     -5.8350309E-28
   3.610000     -6.2263591E-28
   3.620000     -6.6072103E-28
   3.630000     -6.9739031E-28
   3.640000     -7.3225128E-28
   3.650000     -7.6488616E-28
   3.660000     -7.9485180E-28
   3.670000     -8.2167875E-28
   3.680000     -8.4487205E-28
   3.690000     -8.6390929E-28
   3.700000     -8.7824148E-28
   3.710000     -8.8729326E-28
   3.720000     -8.9046344E-28
   3.730000     -8.8712628E-28
   3.740000     -8.7663218E-28
   3.750000     -8.5831052E-28
   3.760000     -8.3147182E-28
   3.770000     -7.9541094E-28
   3.780000     -7.4941131E-28
   3.790000     -6.9274848E-28
   3.800000     -6.2469541E-28
   3.810000     -5.4452905E-28
   3.820000     -4.5153476E-28
   3.830000     -3.4501345E-28
   3.840000     -2.2428906E-28
   3.850000     -8.8715537E-29
   3.860000      6.2315943E-29
   3.870000      2.2936918E-28
   3.880000      4.1295588E-28
   3.890000      6.1352829E-28
   3.900000      8.3146970E-28
   3.910000      1.0670877E-27
   3.920000      1.3206063E-27
   3.930000      1.5921579E-27
   3.940000      1.8817763E-27
   3.950000      2.1893877E-27
   3.960000      2.5148034E-27
   3.970000      2.8577112E-27
   3.980000      3.2176660E-27
   3.990000      3.5940823E-27
   4.000000      3.9862235E-27
   4.010000      4.3931922E-27
   4.020000      4.8139231E-27
   4.030000      5.2471692E-27
   4.040000      5.6914912E-27
   4.050000      6.1452476E-27
   4.060000      6.6065830E-27
   4.070000      7.0734191E-27
   4.080000      7.5434416E-27
   4.090000      8.0140872E-27
   4.100000      8.4825389E-27
   4.110000      8.9457119E-27
   4.120000      9.4002453E-27
   4.130000      9.8424950E-27
   4.140000      1.0268530E-26
   4.150000      1.0674125E-26
   4.160000      1.1054760E-26
   4.170000      1.1405618E-26
   4.180000      1.1721588E-26
   4.190000      1.1997269E-26
   4.200000      1.2226977E-26
   4.210000      1.2404754E-26
   4.220000      1.2524375E-26
   4.230000      1.2579357E-26
   4.240000      1.2562984E-26
   4.250000      1.2468326E-26
   4.260000      1.2288248E-26
   4.270000      1.2015436E-26
   4.280000      1.1642426E-26
   4.290000      1.1161628E-26
   4.300000      1.0565348E-26
   4.310000      9.8458300E-27
   4.320000      8.9952931E-27
   4.330000      8.0059467E-27
   4.340000      6.8700517E-27
   4.350000      5.5799494E-27
   4.360000      4.1281195E-27
   4.370000      2.5072097E-27
   4.380000      7.1010852E-28
   4.390000     -1.2700114E-27
   4.400000     -3.4396350E-27
   4.410000     -5.8048283E-27
   4.420000     -8.3711647E-27
   4.430000     -1.1143653E-26
   4.440000     -1.4126662E-26
   4.450000     -1.7323837E-26
   4.460000     -2.0737987E-26
   4.470000     -2.4371021E-26
   4.480000     -2.8223838E-26
   4.490000     -3.2296215E-26
   4.500000     -3.6586725E-26
   4.510000     -4.1092630E-26
   4.520000     -4.5809763E-26
   4.530000     -5.0732431E-26
   4.540000     -5.5853287E-26
   4.550000     -6.1163227E-26
   4.560000     -6.6651271E-26
   4.570000     -7.2304464E-26
   4.580000     -7.8107756E-26
   4.590000     -8.4043910E-26
   4.600000     -9.0093376E-26
   4.610000     -9.6234208E-26
   4.620000     -1.0244199E-25
   4.630000     -1.0868967E-25
   4.640000     -1.1494752E-25
   4.650000     -1.2118305E-25
   4.660000     -1.2736093E-25
   4.670000     -1.3344286E-25
   4.680000     -1.3938751E-25
   4.690000     -1.4515053E-25
   4.700000     -1.5068444E-25
   4.710000     -1.5593862E-25
   4.720000     -1.6085920E-25
   4.730000     -1.6538909E-25
   4.740000     -1.6946794E-25
   4.750000     -1.7303220E-25
   4.760000     -1.7601498E-25
   4.770000     -1.7834622E-25
   4.780000     -1.7995263E-25
   4.790000     -1.8075790E-25
   4.800000     -1.8068275E-25
   4.810000     -1.7964489E-25
   4.820000     -1.7755934E-25
   4.830000     -1.7433862E-25
   4.840000     -1.6989275E-25
   4.850000     -1.6412970E-25
   4.860000     -1.5695548E-25
   4.870000     -1.4827446E-25
   4.880000     -1.3798989E-25
   4.890000     -1.2600383E-25
   4.900000     -1.1221786E-25
   4.910000     -9.6533427E-26
   4.920000     -7.8852170E-26
   4.930000     -5.9076585E-26
   4.940000     -3.7110451E-26
   4.950000     -1.2859418E-26
   4.960000      1.3768433E-26
   4.970000      4.2861891E-26
   4.980000      7.4505983E-26
   4.990000      1.0878122E-25
   5.000000      1.4576304E-25
   5.010000      1.8552075E-25
   5.020000      2.2811686E-25
   5.030000      2.7360640E-25
   5.040000      3.2203563E-25
   5.050000      3.7344140E-25
   5.060000      4.2785020E-25
   5.070000      4.8527671E-25
   5.080000      5.4572328E-25
   5.090000      6.0917885E-25
   5.100000      6.7561770E-25
   5.110000      7.4499797E-25
   5.120000      8.1726064E-25
   5.130000      8.9232830E-25
   5.140000      9.7010446E-25
   5.150000      1.0504718E-24
   5.160000      1.1332915E-24
   5.170000      1.2184011E-24
   5.180000      1.3056141E-24
   5.190000      1.3947176E-24
   5.200000      1.4854720E-24
   5.210000      1.5776099E-24
   5.220000      1.6708346E-24
   5.230000      1.7648191E-24
   5.240000      1.8592036E-24
   5.250000      1.9535967E-24
   5.260000      2.0475727E-24
   5.270000      2.1406717E-24
   5.280000      2.2323973E-24
   5.290000      2.3222170E-24
   5.300000      2.4095620E-24
   5.310000      2.4938254E-24
   5.320000      2.5743620E-24
   5.330000      2.6504865E-24
   5.340000      2.7214755E-24
   5.350000      2.7865675E-24
   5.360000      2.8449604E-24
   5.370000      2.8958139E-24
   5.380000      2.9382491E-24
   5.390000      2.9713475E-24
   5.400000      2.9941549E-24
   5.410000      3.0056800E-24
   5.420000      3.0048952E-24
   5.430000      2.9907389E-24
   5.440000      2.9621165E-24
   5.450000      2.9179036E-24
   5.460000      2.8569471E-24
   5.470000      2.7780670E-24
   5.480000      2.6800607E-24
   5.490000      2.5617081E-24
   5.500000      2.4217720E-24
   5.510000      2.2590028E-24
   5.520000      2.0721422E-24
   5.530000      1.8599271E-24
   5.540000      1.6210969E-24
   5.550000      1.3543951E-24
   5.560000      1.0585782E-24
   5.570000      7.3242047E-25
   5.580000      3.7471909E-25
   5.590000     -1.5696952E-26
   5.600000     -4.3996045E-25
   5.610000     -8.9916042E-25
   5.620000     -1.3943273E-24
   5.630000     -1.9264295E-24
   5.640000     -2.4963630E-24
   5.650000     -3.1049419E-24
   5.660000     -3.7528906E-24
   5.670000     -4.4408278E-24
   5.680000     -5.1692596E-24
   5.690000     -5.9385745E-24
   5.700000     -6.7490237E-24
   5.710000     -7.6007143E-24
   5.720000     -8.4935952E-24
   5.730000     -9.4274424E-24
   5.740000     -1.0401855E-23
   5.750000     -1.1416240E-23
   5.760000     -1.2469793E-23
   5.770000     -1.3561485E-23
   5.780000     -1.4690053E-23
   5.790000     -1.5853979E-23
   5.800000     -1.7051489E-23
   5.810000     -1.8280529E-23
   5.820000     -1.9538759E-23
   5.830000     -2.0823530E-23
   5.840000     -2.2131873E-23
   5.850000     -2.3460498E-23
   5.860000     -2.4805767E-23
   5.870000     -2.6163686E-23
   5.880000     -2.7529898E-23
   5.890000     -2.8899670E-23
   5.900000     -3.0267867E-23
   5.910000     -3.1628965E-23
   5.920000     -3.2977027E-23
   5.930000     -3.4305705E-23
   5.940000     -3.5608225E-23
   5.950000     -3.6877370E-23
   5.960000     -3.8105491E-23
   5.970000     -3.9284494E-23
   5.980000     -4.0405825E-23
   5.990000     -4.1460513E-23
   6.000000     -4.2439130E-23
   6.010000     -4.3331776E-23
   6.020000     -4.4128134E-23
   6.030000     -4.4817469E-23
   6.040000     -4.5388602E-23
   6.050000     -4.5829938E-23
   6.060000     -4.6129509E-23
   6.070000     -4.6274940E-23
   6.080000     -4.6253449E-23
   6.090000     -4.6051939E-23
   6.100000     -4.5657004E-23
   6.110000     -4.5054898E-23
   6.120000     -4.4231617E-23
   6.130000     -4.3172925E-23
   6.140000     -4.1864359E-23
   6.150000     -4.0291295E-23
   6.160000     -3.8438999E-23
   6.170000     -3.6292672E-23
   6.180000     -3.3837510E-23
   6.190000     -3.1058710E-23
   6.200000     -2.7941532E-23
   6.210000     -2.4471407E-23
   6.220000     -2.0633970E-23
   6.230000     -1.6415186E-23
   6.240000     -1.1801376E-23
   6.250000     -6.7792545E-24
   6.260000     -1.3360795E-24
   6.270000      4.5403095E-24
   6.280000      1.0861367E-23
   6.290000      1.7637723E-23
   6.300000      2.4879176E-23
   6.310000      3.2594540E-23
   6.320000      4.0791477E-23
   6.330000      4.9476485E-23
   6.340000      5.8654755E-23
   6.350000      6.8330040E-23
   6.360000      7.8504496E-23
   6.370000      8.9178624E-23
   6.380000      1.0035114E-22
   6.390000      1.1201880E-22
   6.400000      1.2417635E-22
   6.410000      1.3681630E-22
   6.420000      1.4992888E-22
   6.430000      1.6350186E-22
   6.440000      1.7752046E-22
   6.450000      1.9196718E-22
   6.460000      2.0682161E-22
   6.470000      2.2206038E-22
   6.480000      2.3765706E-22
   6.490000      2.5358193E-22
   6.500000      2.6980186E-22
   6.510000      2.8628027E-22
   6.520000      3.0297689E-22
   6.530000      3.1984786E-22
   6.540000      3.3684527E-22
   6.550000      3.5391736E-22
   6.560000      3.7100835E-22
   6.570000      3.8805830E-22
   6.580000      4.0500311E-22
   6.590000      4.2177434E-22
   6.600000      4.3829930E-22
   6.610000      4.5450096E-22
   6.620000      4.7029762E-22
   6.630000      4.8560323E-22
   6.640000      5.0032739E-22
   6.650000      5.1437513E-22
   6.660000      5.2764727E-22
   6.670000      5.4004029E-22
   6.680000      5.5144598E-22
   6.690000      5.6175222E-22
   6.700000      5.7084252E-22
   6.710000      5.7859638E-22
   6.720000      5.8488960E-22
   6.730000      5.8959419E-22
   6.740000      5.9257843E-22
   6.750000      5.9370767E-22
   6.760000      5.9284399E-22
   6.770000      5.8984682E-22
   6.780000      5.8457299E-22
   6.790000      5.7687699E-22
   6.800000      5.6661175E-22
   6.810000      5.5362854E-22
   6.820000      5.3777822E-22
   6.830000      5.1891104E-22
   6.840000      4.9687680E-22
   6.850000      4.7152622E-22
   6.860000      4.4271086E-22
   6.870000      4.1028393E-22
   6.880000      3.7410079E-22
   6.890000      3.3401976E-22
   6.900000      2.8990328E-22
   6.910000      2.4161759E-22
   6.920000      1.8903406E-22
   6.930000      1.3203027E-22
   6.940000      7.0490339E-23
   6.950000      4.3061282E-24
   6.960000     -6.6622528E-23
   6.970000     -1.4238648E-22
   6.980000     -2.2306581E-22
   6.990000     -3.0872888E-22
   7.000000     -3.9943191E-22
   7.010000     -4.9521830E-22
   7.020000     -5.9611666E-22
   7.030000     -7.0214023E-22
   7.040000     -8.1328576E-22
   7.050000     -9.2953240E-22
   7.060000     -1.0508406E-21