  -2.600000      0.0000000E+00
  -2.590000      0.0000000E+00
  -2.580000      0.0000000E+00
  -2.570000      0.0000000E+00
  -2.560000      0.0000000E+00
  -2.550000      0.0000000E+00
  -2.540000      0.0000000E+00
  -2.530000      0.0000000E+00
  -2.520000      0.0000000E+00
  -2.510000      0.0000000E+00
  -2.500000      0.0000000E+00
  -2.490000      0.0000000E+00
  -2.480000      0.0000000E+00
  -2.470000      0.0000000E+00
  -2.460000      0.0000000E+00
  -2.450000      0.0000000E+00
  -2.440000      0.0000000E+00
  -2.430000      0.0000000E+00
  -2.420000      0.0000000E+00
  -2.410000      0.0000000E+00
  -2.400000      0.0000000E+00
  -2.390000      0.0000000E+00
  -2.380000      0.0000000E+00
  -2.370000      0.0000000E+00
  -2.360000      0.0000000E+00
  -2.350000      0.0000000E+00
  -2.340000      0.0000000E+00
  -2.330000      0.0000000E+00
  -2.320000      0.0000000E+00
  -2.310000      0.0000000E+00
  -2.300000      0.0000000E+00
  -2.290000      0.0000000E+00
  -2.280000      0.0000000E+00
  -2.270000      0.0000000E+00
  -2.260000      0.0000000E+00
  -2.250000      0.0000000E+00
  -2.240000      0.0000000E+00
  -2.230000      0.0000000E+00
  -2.220000      0.0000000E+00
  -2.210000      0.0000000E+00
  -2.200000      0.0000000E+00
  -2.190000      0.0000000E+00
  -2.180000      0.0000000E+00
  -2.170000      0.0000000E+00
  -2.160000      0.0000000E+00
  -2.150000      0.0000000E+00
  -2.140000      0.0000000E+00
  -2.130000      0.0000000E+00
  -2.120000      0.0000000E+00
  -2.110000      0.0000000E+00
  -2.100000      0.0000000E+00
  -2.090000      0.0000000E+00
  -2.080000      0.0000000E+00
  -2.070000      0.0000000E+00
  -2.060000      0.0000000E+00
  -2.050000      0.0000000E+00
  -2.040000      0.0000000E+00
  -2.030000      0.0000000E+00
  -2.020000      0.0000000E+00
  -2.010000      0.0000000E+00
  -2.000000      0.0000000E+00
  -1.990000      0.0000000E+00
  -1.980000      0.0000000E+00
  -1.970000      0.0000000E+00
  -1.960000      0.0000000E+00
  -1.950000      0.0000000E+00
  -1.940000      0.0000000E+00
  -1.930000      0.0000000E+00
  -1.920000      0.0000000E+00
  -1.910000      0.0000000E+00
  -1.900000      0.0000000E+00
  -1.890000      0.0000000E+00
  -1.880000      0.0000000E+00
  -1.870000      0.0000000E+00
  -1.860000      0.0000000E+00
  -1.850000      0.0000000E+00
  -1.840000      0.0000000E+00
  -1.830000      0.0000000E+00
  -1.820000      0.0000000E+00
  -1.810000      0.0000000E+00
  -1.800000      0.0000000E+00
  -1.790000      0.0000000E+00
  -1.780000      0.0000000E+00
  -1.770000      0.0000000E+00
  -1.760000      0.0000000E+00
  -1.750000      0.0000000E+00
  -1.740000      0.0000000E+00
  -1.730000      0.0000000E+00
  -1.720000      0.0000000E+00
  -1.710000      0.0000000E+00
  -1.700000      0.0000000E+00
  -1.690000      0.0000000E+00
  -1.680000      0.0000000E+00
  -1.670000      0.0000000E+00
  -1.660000      0.0000000E+00
  -1.650000      0.0000000E+00
  -1.640000      0.0000000E+00
  -1.630000      0.0000000E+00
  -1.620000      0.0000000E+00
  -1.610000      0.0000000E+00
  -1.600000      0.0000000E+00
  -1.590000      0.0000000E+00
  -1.580000      0.0000000E+00
  -1.570000      0.0000000E+00
  -1.560000      0.0000000E+00
  -1.550000      0.0000000E+00
  -1.540000      0.0000000E+00
  -1.530000      0.0000000E+00
  -1.520000      0.0000000E+00
  -1.510000      0.0000000E+00
  -1.500000      0.0000000E+00
  -1.490000      0.0000000E+00
  -1.480000      0.0000000E+00
  -1.470000      0.0000000E+00
  -1.460000      0.0000000E+00
  -1.450000      0.0000000E+00
  -1.440000      0.0000000E+00
  -1.430000      0.0000000E+00
  -1.420000      0.0000000E+00
  -1.410000      0.0000000E+00
  -1.400000      0.0000000E+00
  -1.390000      0.0000000E+00
  -1.380000      0.0000000E+00
  -1.370000      0.0000000E+00
  -1.360000      0.0000000E+00
  -1.350000      0.0000000E+00
  -1.340000      0.0000000E+00
  -1.330000      0.0000000E+00
  -1.320000      0.0000000E+00
  -1.310000      0.0000000E+00
  -1.300000      0.0000000E+00
  -1.290000      0.0000000E+00
  -1.280000      0.0000000E+00
  -1.270000      0.0000000E+00
  -1.260000      0.0000000E+00
  -1.250000      0.0000000E+00
  -1.240000      0.0000000E+00
  -1.230000      0.0000000E+00
  -1.220000      0.0000000E+00
  -1.210000      0.0000000E+00
  -1.200000      0.0000000E+00
  -1.190000      0.0000000E+00
  -1.180000      0.0000000E+00
  -1.170000      0.0000000E+00
  -1.160000      0.0000000E+00
  -1.150000      0.0000000E+00
  -1.140000      0.0000000E+00
  -1.130000      0.0000000E+00
  -1.120000      0.0000000E+00
  -1.110000      0.0000000E+00
  -1.100000      0.0000000E+00
  -1.090000      0.0000000E+00
  -1.080000      0.0000000E+00
  -1.070000      0.0000000E+00
  -1.060000      0.0000000E+00
  -1.050000      0.0000000E+00
  -1.040000      0.0000000E+00
  -1.030000      0.0000000E+00
  -1.020000      0.0000000E+00
  -1.010000      0.0000000E+00
  -1.000000      0.0000000E+00
 -0.9900000      0.0000000E+00
 -0.9800000      0.0000000E+00
 -0.9700000      0.0000000E+00
 -0.9600000      0.0000000E+00
 -0.9500000      0.0000000E+00
 -0.9400000      0.0000000E+00
 -0.9300000      0.0000000E+00
 -0.9200000      0.0000000E+00
 -0.9100000      0.0000000E+00
 -0.9000000      0.0000000E+00
 -0.8900000      0.0000000E+00
 -0.8800000      0.0000000E+00
 -0.8700000      0.0000000E+00
 -0.8600000      0.0000000E+00
 -0.8500000      0.0000000E+00
 -0.8400000      0.0000000E+00
 -0.8300000      0.0000000E+00
 -0.8200000      0.0000000E+00
 -0.8100000      0.0000000E+00
 -0.8000000      0.0000000E+00
 -0.7900000      0.0000000E+00
 -0.7800000      0.0000000E+00
 -0.7700000      0.0000000E+00
 -0.7600000      0.0000000E+00
 -0.7500000      0.0000000E+00
 -0.7400000      0.0000000E+00
 -0.7300000      0.0000000E+00
 -0.7200000      0.0000000E+00
 -0.7100000      0.0000000E+00
 -0.7000000      0.0000000E+00
 -0.6900000      0.0000000E+00
 -0.6800000      0.0000000E+00
 -0.6700000      0.0000000E+00
 -0.6600000      0.0000000E+00
 -0.6500000      0.0000000E+00
 -0.6400000      0.0000000E+00
 -0.6300000      0.0000000E+00
 -0.6200000      0.0000000E+00
 -0.6100000      0.0000000E+00
 -0.6000000      0.0000000E+00
 -0.5900000      0.0000000E+00
 -0.5800000      0.0000000E+00
 -0.5700000      0.0000000E+00
 -0.5600000      0.0000000E+00
 -0.5500000      0.0000000E+00
 -0.5400000      0.0000000E+00
 -0.5300000      0.0000000E+00
 -0.5200000      0.0000000E+00
 -0.5100000      0.0000000E+00
 -0.5000000      0.0000000E+00
 -0.4900000      0.0000000E+00
 -0.4800000      0.0000000E+00
 -0.4700000      0.0000000E+00
 -0.4600000      0.0000000E+00
 -0.4500000      0.0000000E+00
 -0.4400000      0.0000000E+00
 -0.4300000      0.0000000E+00
 -0.4200000      0.0000000E+00
 -0.4100000      0.0000000E+00
 -0.4000000      0.0000000E+00
 -0.3900000      0.0000000E+00
 -0.3800000      0.0000000E+00
 -0.3700000      0.0000000E+00
 -0.3600000      0.0000000E+00
 -0.3500000      0.0000000E+00
 -0.3400000      0.0000000E+00
 -0.3300000      0.0000000E+00
 -0.3200000      0.0000000E+00
 -0.3100000      0.0000000E+00
 -0.3000000      0.0000000E+00
 -0.2900000      0.0000000E+00
 -0.2800000      0.0000000E+00
 -0.2700000      0.0000000E+00
 -0.2600000      0.0000000E+00
 -0.2500000      0.0000000E+00
 -0.2400000      0.0000000E+00
 -0.2300000      0.0000000E+00
 -0.2200000      0.0000000E+00
 -0.2100000      0.0000000E+00
 -0.2000000      0.0000000E+00
 -0.1900000      0.0000000E+00
 -0.1800000      0.0000000E+00
 -0.1700000      0.0000000E+00
 -0.1600000      0.0000000E+00
 -0.1500000      0.0000000E+00
 -0.1400000      0.0000000E+00
 -0.1300000      0.0000000E+00
 -0.1200000      0.0000000E+00
 -0.1100000      0.0000000E+00
 -0.1000000      0.0000000E+00
 -9.0000004E-02  0.0000000E+00
 -7.9999998E-02  0.0000000E+00
 -7.0000000E-02  0.0000000E+00
 -5.9999999E-02  0.0000000E+00
 -5.0000001E-02  0.0000000E+00
 -3.9999999E-02  0.0000000E+00
 -2.9999999E-02  0.0000000E+00
 -2.0000000E-02  0.0000000E+00
 -9.9999998E-03  0.0000000E+00
 -3.4694470E-17  0.0000000E+00
  9.9999998E-03  0.0000000E+00
  2.0000000E-02  0.0000000E+00
  2.9999999E-02  0.0000000E+00
  3.9999999E-02  0.0000000E+00
  5.0000001E-02  0.0000000E+00
  5.9999999E-02  0.0000000E+00
  7.0000000E-02  0.0000000E+00
  7.9999998E-02  0.0000000E+00
  9.0000004E-02  0.0000000E+00
  0.1000000      0.0000000E+00
  0.1100000      0.0000000E+00
  0.1200000      0.0000000E+00
  0.1300000      0.0000000E+00
  0.1400000      0.0000000E+00
  0.1500000      0.0000000E+00
  0.1600000      0.0000000E+00
  0.1700000      0.0000000E+00
  0.1800000      0.0000000E+00
  0.1900000      0.0000000E+00
  0.2000000      0.0000000E+00
  0.2100000      0.0000000E+00
  0.2200000      0.0000000E+00
  0.2300000      0.0000000E+00
  0.2400000      0.0000000E+00
  0.2500000      0.0000000E+00
  0.2600000      0.0000000E+00
  0.2700000      0.0000000E+00
  0.2800000      0.0000000E+00
  0.2900000      0.0000000E+00
  0.3000000      0.0000000E+00
  0.3100000      0.0000000E+00
  0.3200000      0.0000000E+00
  0.3300000      0.0000000E+00
  0.3400000      0.0000000E+00
  0.3500000      0.0000000E+00
  0.3600000      0.0000000E+00
  0.3700000      0.0000000E+00
  0.3800000      0.0000000E+00
  0.3900000      0.0000000E+00
  0.4000000      0.0000000E+00
  0.4100000      0.0000000E+00
  0.4200000      0.0000000E+00
  0.4300000      0.0000000E+00
  0.4400000      0.0000000E+00
  0.4500000      0.0000000E+00
  0.4600000      0.0000000E+00
  0.4700000      0.0000000E+00
  0.4800000      0.0000000E+00
  0.4900000      0.0000000E+00
  0.5000000      0.0000000E+00
  0.5100000      0.0000000E+00
  0.5200000      0.0000000E+00
  0.5300000      0.0000000E+00
  0.5400000      0.0000000E+00
  0.5500000      0.0000000E+00
  0.5600000      0.0000000E+00
  0.5700000      0.0000000E+00
  0.5800000      0.0000000E+00
  0.5900000      0.0000000E+00
  0.6000000      0.0000000E+00
  0.6100000      0.0000000E+00
  0.6200000      0.0000000E+00
  0.6300000      0.0000000E+00
  0.6400000      0.0000000E+00
  0.6500000      0.0000000E+00
  0.6600000      0.0000000E+00
  0.6700000      0.0000000E+00
  0.6800000      0.0000000E+00
  0.6900000      0.0000000E+00
  0.7000000      0.0000000E+00
  0.7100000      0.0000000E+00
  0.7200000      0.0000000E+00
  0.7300000      0.0000000E+00
  0.7400000      0.0000000E+00
  0.7500000      0.0000000E+00
  0.7600000      0.0000000E+00
  0.7700000      0.0000000E+00
  0.7800000      0.0000000E+00
  0.7900000      0.0000000E+00
  0.8000000      0.0000000E+00
  0.8100000      0.0000000E+00
  0.8200000      0.0000000E+00
  0.8300000      0.0000000E+00
  0.8400000      0.0000000E+00
  0.8500000      0.0000000E+00
  0.8600000      0.0000000E+00
  0.8700000      0.0000000E+00
  0.8800000      0.0000000E+00
  0.8900000      0.0000000E+00
  0.9000000      0.0000000E+00
  0.9100000      0.0000000E+00
  0.9200000      0.0000000E+00
  0.9300000      0.0000000E+00
  0.9400000      0.0000000E+00
  0.9500000      0.0000000E+00
  0.9600000      0.0000000E+00
  0.9700000      0.0000000E+00
  0.9800000      0.0000000E+00
  0.9900000      0.0000000E+00
   1.000000      0.0000000E+00
   1.010000      0.0000000E+00
   1.020000      0.0000000E+00
   1.030000      0.0000000E+00
   1.040000      0.0000000E+00
   1.050000      0.0000000E+00
   1.060000      0.0000000E+00
   1.070000      0.0000000E+00
   1.080000      0.0000000E+00
   1.090000      0.0000000E+00
   1.100000      0.0000000E+00
   1.110000      0.0000000E+00
   1.120000      0.0000000E+00
   1.130000      0.0000000E+00
   1.140000      0.0000000E+00
   1.150000      0.0000000E+00
   1.160000      0.0000000E+00
   1.170000      0.0000000E+00
   1.180000      0.0000000E+00
   1.190000      0.0000000E+00
   1.200000      0.0000000E+00
   1.210000      0.0000000E+00
   1.220000      0.0000000E+00
   1.230000      0.0000000E+00
   1.240000      0.0000000E+00
   1.250000      0.0000000E+00
   1.260000      0.0000000E+00
   1.270000      0.0000000E+00
   1.280000      0.0000000E+00
   1.290000      0.0000000E+00
   1.300000      0.0000000E+00
   1.310000      0.0000000E+00
   1.320000      0.0000000E+00
   1.330000      0.0000000E+00
   1.340000      0.0000000E+00
   1.350000      0.0000000E+00
   1.360000      0.0000000E+00
   1.370000      0.0000000E+00
   1.380000      0.0000000E+00
   1.390000      0.0000000E+00
   1.400000      0.0000000E+00
   1.410000      0.0000000E+00
   1.420000      0.0000000E+00
   1.430000      0.0000000E+00
   1.440000      0.0000000E+00
   1.450000      0.0000000E+00
   1.460000      0.0000000E+00
   1.470000      0.0000000E+00
   1.480000      0.0000000E+00
   1.490000      0.0000000E+00
   1.500000      0.0000000E+00
   1.510000      0.0000000E+00
   1.520000      0.0000000E+00
   1.530000      0.0000000E+00
   1.540000      0.0000000E+00
   1.550000      0.0000000E+00
   1.560000      0.0000000E+00
   1.570000      0.0000000E+00
   1.580000      0.0000000E+00
   1.590000      0.0000000E+00
   1.600000      0.0000000E+00
   1.610000      0.0000000E+00
   1.620000      0.0000000E+00
   1.630000      0.0000000E+00
   1.640000      0.0000000E+00
   1.650000      0.0000000E+00
   1.660000      0.0000000E+00
   1.670000      0.0000000E+00
   1.680000      0.0000000E+00
   1.690000      0.0000000E+00
   1.700000      0.0000000E+00
   1.710000      0.0000000E+00
   1.720000      0.0000000E+00
   1.730000      0.0000000E+00
   1.740000      0.0000000E+00
   1.750000      0.0000000E+00
   1.760000      0.0000000E+00
   1.770000      0.0000000E+00
   1.780000      0.0000000E+00
   1.790000      0.0000000E+00
   1.800000      0.0000000E+00
   1.810000      0.0000000E+00
   1.820000      0.0000000E+00
   1.830000      0.0000000E+00
   1.840000      0.0000000E+00
   1.850000      0.0000000E+00
   1.860000      0.0000000E+00
   1.870000      0.0000000E+00
   1.880000      0.0000000E+00
   1.890000      0.0000000E+00
   1.900000      0.0000000E+00
   1.910000      0.0000000E+00
   1.920000      0.0000000E+00
   1.930000      0.0000000E+00
   1.940000      0.0000000E+00
   1.950000      0.0000000E+00
   1.960000      0.0000000E+00
   1.970000      0.0000000E+00
   1.980000      0.0000000E+00
   1.990000      0.0000000E+00
   2.000000      0.0000000E+00
   2.010000      0.0000000E+00
   2.020000      0.0000000E+00
   2.030000      0.0000000E+00
   2.040000      0.0000000E+00
   2.050000      0.0000000E+00
   2.060000      0.0000000E+00
   2.070000      0.0000000E+00
   2.080000      0.0000000E+00
   2.090000      0.0000000E+00
   2.100000      0.0000000E+00
   2.110000      0.0000000E+00
   2.120000      0.0000000E+00
   2.130000      0.0000000E+00
   2.140000      0.0000000E+00
   2.150000      0.0000000E+00
   2.160000      0.0000000E+00
   2.170000      0.0000000E+00
   2.180000      0.0000000E+00
   2.190000      0.0000000E+00
   2.200000      0.0000000E+00
   2.210000      0.0000000E+00
   2.220000      0.0000000E+00
   2.230000      0.0000000E+00
   2.240000      0.0000000E+00
   2.250000      0.0000000E+00
   2.260000      0.0000000E+00
   2.270000      0.0000000E+00
   2.280000      0.0000000E+00
   2.290000      0.0000000E+00
   2.300000      0.0000000E+00
   2.310000      1.2255796E-38
   2.320000      1.3382744E-38
   2.330000      1.4495023E-38
   2.340000      1.5507638E-38
   2.350000      1.5808775E-38
   2.360000      1.5485157E-38
   2.370000      1.5138416E-38
   2.380000      1.4906580E-38
   2.390000      1.4841986E-38
   2.400000      1.4969100E-38
   2.410000      1.5310490E-38
   2.420000      1.5825610E-38
   2.430000      1.6597165E-38
   2.440000      1.7038842E-38
   2.450000      1.7044177E-38
   2.460000      1.7733857E-38
   2.470000      1.9407254E-38
   2.480000      2.1411363E-38
   2.490000      2.3151979E-38
   2.500000      2.4299039E-38
   2.510000      2.3781307E-38
   2.520000      2.1221242E-38
   2.530000      1.6461988E-38
   2.540000      0.0000000E+00
   2.550000      0.0000000E+00
   2.560000     -1.5022197E-38
   2.570000     -3.0298629E-38
   2.580000     -4.7527784E-38
   2.590000     -6.5984241E-38
   2.600000     -8.5185959E-38
   2.610000     -1.0358819E-37
   2.620000     -1.2188638E-37
   2.630000     -1.4097829E-37
   2.640000     -1.5928705E-37
   2.650000     -1.7686854E-37
   2.660000     -1.9298584E-37
   2.670000     -2.0842727E-37
   2.680000     -2.2568540E-37
   2.690000     -2.4439551E-37
   2.700000     -2.6411304E-37
   2.710000     -2.8640041E-37
   2.720000     -3.1297676E-37
   2.730000     -3.4988210E-37
   2.740000     -3.9788966E-37
   2.750000     -4.8998887E-37
   2.760000     -6.9604495E-37
   2.770000     -9.9084563E-37
   2.780000     -1.3067141E-36
   2.790000     -1.6438098E-36
   2.800000     -1.9946976E-36
   2.810000     -2.3516472E-36
   2.820000     -2.4001442E-36
   2.830000     -2.0607614E-36
   2.840000     -1.5918645E-36
   2.850000     -1.0400469E-36
   2.860000     -4.5502340E-37
   2.870000      1.1618186E-37
   2.880000      5.9212950E-37
   2.890000      9.4197166E-37
   2.900000      1.1614371E-36
   2.910000      1.6019395E-36
   2.920000      2.0618430E-36
   2.930000      2.2419335E-36
   2.940000      2.4227332E-36
   2.950000      2.6121495E-36
   2.960000      2.7153706E-36
   2.970000      2.7622275E-36
   2.980000      2.8976190E-36
   2.990000      3.1044616E-36
   3.000000      3.4177358E-36
   3.010000      3.8221632E-36
   3.020000      4.2236766E-36
   3.030000      4.5911165E-36
   3.040000      4.9699222E-36
   3.050000      5.5184617E-36
   3.060000      6.3560976E-36
   3.070000      7.5729050E-36
   3.080000      9.1453934E-36
   3.090000      1.0878245E-35
   3.100000      1.2666094E-35
   3.110000      1.4186696E-35
   3.120000      1.5088228E-35
   3.130000      1.5142577E-35
   3.140000      1.4329573E-35
   3.150000      1.2863401E-35
   3.160000      1.0882068E-35
   3.170000      8.4834317E-36
   3.180000      5.7866020E-36
   3.190000      3.1315710E-36
   3.200000      8.2876405E-37
   3.210000     -1.0349054E-36
   3.220000     -2.4563344E-36
   3.230000     -3.4967983E-36
   3.240000     -3.9851307E-36
   3.250000     -3.9410314E-36
   3.260000     -3.7699465E-36
   3.270000     -3.7372315E-36
   3.280000     -4.1008075E-36
   3.290000     -5.0907902E-36
   3.300000     -7.6438249E-36
   3.310000     -1.1945103E-35
   3.320000     -1.7319615E-35
   3.330000     -2.3499095E-35
   3.340000     -3.0354530E-35
   3.350000     -3.6740392E-35
   3.360000     -4.2240589E-35
   3.370000     -4.7366040E-35
   3.380000     -5.1783103E-35
   3.390000     -5.5316623E-35
   3.400000     -5.7819720E-35
   3.410000     -5.9138415E-35
   3.420000     -5.9686638E-35
   3.430000     -5.9810146E-35
   3.440000     -5.9421044E-35
   3.450000     -5.8286222E-35
   3.460000     -5.6615757E-35
   3.470000     -5.5114269E-35
   3.480000     -5.3841561E-35
   3.490000     -5.2124760E-35
   3.500000     -4.9703454E-35
   3.510000     -4.7455952E-35
   3.520000     -4.8337246E-35
   3.530000     -5.2389229E-35
   3.540000     -5.8517377E-35
   3.550000     -6.6116541E-35
   3.560000     -7.3506463E-35
   3.570000     -7.8669695E-35
   3.580000     -8.0023993E-35
   3.590000     -7.8120984E-35
   3.600000     -6.3222093E-35
   3.610000     -3.4361152E-35
   3.620000     -8.1838072E-37
   3.630000      3.1481641E-35
   3.640000      5.8921373E-35
   3.650000      8.3070475E-35
   3.660000      1.0352183E-34
   3.670000      1.1422808E-34
   3.680000      1.1869462E-34
   3.690000      1.2455574E-34
   3.700000      1.2966318E-34
   3.710000      1.3513367E-34
   3.720000      1.4279827E-34
   3.730000      1.5246086E-34
   3.740000      1.6455665E-34
   3.750000      1.7187977E-34
   3.760000      1.7532848E-34
   3.770000      1.8509172E-34
   3.780000      1.9807658E-34
   3.790000      2.0901190E-34
   3.800000      2.2641183E-34
   3.810000      2.7252799E-34
   3.820000      3.3965393E-34
   3.830000      3.9912469E-34
   3.840000      4.4063860E-34
   3.850000      4.7728110E-34
   3.860000      5.2347114E-34
   3.870000      5.7773922E-34
   3.880000      6.1862695E-34
   3.890000      6.2100995E-34
   3.900000      5.9228642E-34
   3.910000      5.4638961E-34
   3.920000      4.8884145E-34
   3.930000      4.3019718E-34
   3.940000      3.7320035E-34
   3.950000      3.2157581E-34
   3.960000      2.7975202E-34
   3.970000      2.4458362E-34
   3.980000      2.1183669E-34
   3.990000      1.8025288E-34
   4.000000      1.6028801E-34
   4.010000      1.4330198E-34
   4.020000      1.1660325E-34
   4.030000      8.0436197E-35
   4.040000      2.9360904E-35
   4.050000     -4.1245456E-35
   4.060000     -1.3234807E-34
   4.070000     -2.4261310E-34
   4.080000     -3.6899831E-34
   4.090000     -5.0937724E-34
   4.100000     -6.6358901E-34
   4.110000     -8.2264529E-34
   4.120000     -9.7420215E-34
   4.130000     -1.1187876E-33
   4.140000     -1.2521302E-33
   4.150000     -1.3742477E-33
   4.160000     -1.4771483E-33
   4.170000     -1.5672093E-33
   4.180000     -1.6720197E-33
   4.190000     -1.7805630E-33
   4.200000     -1.8879091E-33
   4.210000     -1.9910685E-33
   4.220000     -2.0917786E-33
   4.230000     -2.2009609E-33
   4.240000     -2.3148215E-33
   4.250000     -2.4320278E-33
   4.260000     -2.5511818E-33
   4.270000     -2.6667158E-33
   4.280000     -2.7706646E-33
   4.290000     -2.8622020E-33
   4.300000     -2.9413223E-33
   4.310000     -2.9975598E-33
   4.320000     -3.0201536E-33
   4.330000     -3.0157901E-33
   4.340000     -2.9907157E-33
   4.350000     -2.9371427E-33
   4.360000     -2.8525288E-33
   4.370000     -2.7417660E-33
   4.380000     -2.6087660E-33
   4.390000     -2.4573994E-33
   4.400000     -2.2876016E-33
   4.410000     -2.0974011E-33
   4.420000     -1.8867272E-33
   4.430000     -1.6542350E-33
   4.440000     -1.3977880E-33
   4.450000     -1.1138312E-33
   4.460000     -7.9948484E-34
   4.470000     -4.5182554E-34
   4.480000     -6.5948378E-35
   4.490000      3.6082297E-34
   4.500000      8.3122897E-34
   4.510000      1.3488449E-33
   4.520000      1.9135514E-33
   4.530000      2.5206583E-33
   4.540000      3.1682276E-33
   4.550000      3.8534420E-33
   4.560000      4.5663489E-33
   4.570000      5.3062910E-33
   4.580000      6.0733139E-33
   4.590000      6.8596517E-33
   4.600000      7.6615930E-33
   4.610000      8.4736348E-33
   4.620000      9.2970671E-33
   4.630000      1.0138997E-32
   4.640000      1.0990106E-32
   4.650000      1.1843227E-32
   4.660000      1.2702943E-32
   4.670000      1.3567449E-32
   4.680000      1.4433531E-32
   4.690000      1.5296912E-32
   4.700000      1.6150966E-32
   4.710000      1.6988199E-32
   4.720000      1.7799634E-32
   4.730000      1.8575269E-32
   4.740000      1.9304120E-32
   4.750000      1.9975765E-32
   4.760000      2.0577399E-32
   4.770000      2.1101367E-32
   4.780000      2.1541263E-32
   4.790000      2.1886136E-32
   4.800000      2.2132012E-32
   4.810000      2.2267742E-32
   4.820000      2.2282787E-32
   4.830000      2.2174731E-32
   4.840000      2.1937247E-32
   4.850000      2.1563073E-32
   4.860000      2.1045281E-32
   4.870000      2.0376068E-32
   4.880000      1.9544961E-32
   4.890000      1.8540878E-32
   4.900000      1.7352361E-32
   4.910000      1.5967517E-32
   4.920000      1.4374431E-32
   4.930000      1.2561431E-32
   4.940000      1.0517660E-32
   4.950000      8.2345907E-33
   4.960000      5.7052732E-33
   4.970000      2.9238405E-33
   4.980000     -1.1300276E-34
   4.990000     -3.4065815E-33
   5.000000     -6.9566814E-33
   5.010000     -1.0761643E-32
   5.020000     -1.4818828E-32
   5.030000     -1.9124544E-32
   5.040000     -2.3674419E-32
   5.050000     -2.8464034E-32
   5.060000     -3.3489781E-32
   5.070000     -3.8744338E-32
   5.080000     -4.4220687E-32
   5.090000     -4.9912948E-32
   5.100000     -5.5811684E-32
   5.110000     -6.1906082E-32
   5.120000     -6.8182405E-32
   5.130000     -7.4623109E-32
   5.140000     -8.1209186E-32
   5.150000     -8.7918155E-32
   5.160000     -9.4722193E-32
   5.170000     -1.0159101E-31
   5.180000     -1.0849124E-31
   5.190000     -1.1538688E-31
   5.200000     -1.2223962E-31
   5.210000     -1.2900924E-31
   5.220000     -1.3565392E-31
   5.230000     -1.4213050E-31
   5.240000     -1.4839454E-31
   5.250000     -1.5440017E-31
   5.260000     -1.6009997E-31
   5.270000     -1.6544494E-31
   5.280000     -1.7038318E-31
   5.290000     -1.7486027E-31
   5.300000     -1.7881967E-31
   5.310000     -1.8220139E-31
   5.320000     -1.8494245E-31
   5.330000     -1.8697694E-31
   5.340000     -1.8823628E-31
   5.350000     -1.8864978E-31
   5.360000     -1.8814517E-31
   5.370000     -1.8664934E-31
   5.380000     -1.8408896E-31
   5.390000     -1.8039125E-31
   5.400000     -1.7548463E-31
   5.410000     -1.6929921E-31
   5.420000     -1.6176697E-31
   5.430000     -1.5282211E-31
   5.440000     -1.4240109E-31
   5.450000     -1.3044270E-31
   5.460000     -1.1688784E-31
   5.470000     -1.0167984E-31
   5.480000     -8.4764275E-32
   5.490000     -6.6089014E-32
   5.500000     -4.5604811E-32
   5.510000     -2.3265687E-32
   5.520000      9.7012043E-34
   5.530000      2.7139440E-32
   5.540000      5.5273278E-32
   5.550000      8.5395521E-32
   5.560000      1.1752196E-31
   5.570000      1.5165928E-31
   5.580000      1.8780417E-31
   5.590000      2.2594245E-31
   5.600000      2.6604853E-31
   5.610000      3.0808496E-31
   5.620000      3.5200214E-31
   5.630000      3.9773811E-31
   5.640000      4.4521853E-31
   5.650000      4.9435631E-31
   5.660000      5.4505172E-31
   5.670000      5.9719166E-31
   5.680000      6.5064962E-31
   5.690000      7.0528490E-31
   5.700000      7.6094179E-31
   5.710000      8.1744893E-31
   5.720000      8.7461848E-31
   5.730000      9.3224488E-31
   5.740000      9.9010432E-31
   5.750000      1.0479541E-30
   5.760000      1.1055319E-30
   5.770000      1.1625559E-30
   5.780000      1.2187244E-30
   5.790000      1.2737160E-30
   5.800000      1.3271903E-30
   5.810000      1.3787882E-30
   5.820000      1.4281326E-30
   5.830000      1.4748289E-30
   5.840000      1.5184657E-30
   5.850000      1.5586156E-30
   5.860000      1.5948353E-30
   5.870000      1.6266666E-30
   5.880000      1.6536366E-30
   5.890000      1.6752574E-30
   5.900000      1.6910280E-30
   5.910000      1.7004333E-30
   5.920000      1.7029456E-30
   5.930000      1.6980260E-30
   5.940000      1.6851259E-30
   5.950000      1.6636869E-30
   5.960000      1.6331457E-30
   5.970000      1.5929336E-30
   5.980000      1.5424815E-30
   5.990000      1.4812207E-30
   6.000000      1.4085871E-30
   6.010000      1.3240242E-30
   6.020000      1.2269857E-30
   6.030000      1.1169393E-30
   6.040000      9.9336815E-31
   6.050000      8.5577559E-31
   6.060000      7.0368726E-31
   6.070000      5.3665413E-31
   6.080000      3.5425584E-31
   6.090000      1.5610431E-31
   6.100000     -5.8153392E-32
   6.110000     -2.8883088E-31
   6.120000     -5.3619879E-31
   6.130000     -8.0047959E-31
   6.140000     -1.0818429E-30
   6.150000     -1.3804000E-30
   6.160000     -1.6961989E-30
   6.170000     -2.0292183E-30
   6.180000     -2.3793631E-30
   6.190000     -2.7464572E-30
   6.200000     -3.1302388E-30
   6.210000     -3.5303545E-30
   6.220000     -3.9463550E-30
   6.230000     -4.3776895E-30
   6.240000     -4.8237003E-30
   6.250000     -5.2836173E-30
   6.260000     -5.7565561E-30
   6.270000     -6.2415101E-30
   6.280000     -6.7373461E-30
   6.290000     -7.2428019E-30
   6.300000     -7.7564782E-30
   6.310000     -8.2768374E-30
   6.320000     -8.8021980E-30
   6.330000     -9.3307266E-30
   6.340000     -9.8604401E-30
   6.350000     -1.0389195E-29
   6.360000     -1.0914688E-29
   6.370000     -1.1434454E-29
   6.380000     -1.1945862E-29
   6.390000     -1.2446114E-29
   6.400000     -1.2932243E-29
   6.410000     -1.3401119E-29
   6.420000     -1.3849439E-29
   6.430000     -1.4273742E-29
   6.440000     -1.4670401E-29
   6.450000     -1.5035630E-29
   6.460000     -1.5365490E-29
   6.470000     -1.5655891E-29
   6.480000     -1.5902595E-29
   6.490000     -1.6101224E-29
   6.500000     -1.6247273E-29
   6.510000     -1.6336103E-29
   6.520000     -1.6362969E-29
   6.530000     -1.6323015E-29
   6.540000     -1.6211290E-29
   6.550000     -1.6022768E-29
   6.560000     -1.5752356E-29
   6.570000     -1.5394913E-29
   6.580000     -1.4945268E-29
   6.590000     -1.4398236E-29
   6.600000     -1.3748653E-29
   6.610000     -1.2991385E-29
   6.620000     -1.2121361E-29
   6.630000     -1.1133606E-29
   6.640000     -1.0023249E-29
   6.650000     -8.7855665E-30
   6.660000     -7.4160137E-30
   6.670000     -5.9102536E-30
   6.680000     -4.2641891E-30
   6.690000     -2.4739973E-30
   6.700000     -5.3616771E-31
   6.710000      1.5524573E-30
   6.720000      3.7946515E-30
   6.730000      6.1927585E-30
   6.740000      8.7486474E-30
   6.750000      1.1463677E-29
   6.760000      1.4338646E-29
   6.770000      1.7373746E-29
   6.780000      2.0568524E-29
   6.790000      2.3921833E-29
   6.800000      2.7431776E-29
   6.810000      3.1095659E-29
   6.820000      3.4909960E-29
   6.830000      3.8870259E-29
   6.840000      4.2971207E-29
   6.850000      4.7206475E-29
   6.860000      5.1568706E-29
   6.870000      5.6049485E-29
   6.880000      6.0639258E-29
   6.890000      6.5327339E-29
   6.900000      7.0101828E-29
   6.910000      7.4949598E-29
   6.920000      7.9856242E-29
   6.930000      8.4806056E-29
   6.940000      8.9781985E-29
   6.950000      9.4765594E-29
   6.960000      9.9737051E-29
   6.970000      1.0467511E-28
   6.980000      1.0955708E-28
   6.990000      1.1435883E-28
   7.000000      1.1905479E-28
   7.010000      1.2361793E-28
   7.020000      1.2801978E-28
   7.030000      1.3223043E-28
   7.040000      1.3621855E-28
   7.050000      1.3995143E-28
   7.060000      1.4339507E-28