  -2.600000      0.0000000E+00
  -2.590000      0.0000000E+00
  -2.580000      0.0000000E+00
  -2.570000      0.0000000E+00
  -2.560000      0.0000000E+00
  -2.550000      0.0000000E+00
  -2.540000      0.0000000E+00
  -2.530000      0.0000000E+00
  -2.520000      0.0000000E+00
  -2.510000      0.0000000E+00
  -2.500000      0.0000000E+00
  -2.490000      0.0000000E+00
  -2.480000      0.0000000E+00
  -2.470000      0.0000000E+00
  -2.460000      0.0000000E+00
  -2.450000      0.0000000E+00
  -2.440000      0.0000000E+00
  -2.430000      0.0000000E+00
  -2.420000      0.0000000E+00
  -2.410000      0.0000000E+00
  -2.400000      0.0000000E+00
  -2.390000      0.0000000E+00
  -2.380000      0.0000000E+00
  -2.370000      0.0000000E+00
  -2.360000      0.0000000E+00
  -2.350000      0.0000000E+00
  -2.340000      0.0000000E+00
  -2.330000      0.0000000E+00
  -2.320000      0.0000000E+00
  -2.310000      0.0000000E+00
  -2.300000      0.0000000E+00
  -2.290000      0.0000000E+00
  -2.280000      0.0000000E+00
  -2.270000      0.0000000E+00
  -2.260000      0.0000000E+00
  -2.250000      0.0000000E+00
  -2.240000      0.0000000E+00
  -2.230000      0.0000000E+00
  -2.220000      0.0000000E+00
  -2.210000      0.0000000E+00
  -2.200000      0.0000000E+00
  -2.190000      0.0000000E+00
  -2.180000      0.0000000E+00
  -2.170000      0.0000000E+00
  -2.160000      0.0000000E+00
  -2.150000      0.0000000E+00
  -2.140000      0.0000000E+00
  -2.130000      0.0000000E+00
  -2.120000      0.0000000E+00
  -2.110000      0.0000000E+00
  -2.100000      0.0000000E+00
  -2.090000      0.0000000E+00
  -2.080000      0.0000000E+00
  -2.070000      0.0000000E+00
  -2.060000      0.0000000E+00
  -2.050000      0.0000000E+00
  -2.040000      0.0000000E+00
  -2.030000      0.0000000E+00
  -2.020000      0.0000000E+00
  -2.010000      0.0000000E+00
  -2.000000      0.0000000E+00
  -1.990000      0.0000000E+00
  -1.980000      0.0000000E+00
  -1.970000      0.0000000E+00
  -1.960000      0.0000000E+00
  -1.950000      0.0000000E+00
  -1.940000      0.0000000E+00
  -1.930000      0.0000000E+00
  -1.920000      0.0000000E+00
  -1.910000      0.0000000E+00
  -1.900000      0.0000000E+00
  -1.890000      0.0000000E+00
  -1.880000      0.0000000E+00
  -1.870000      0.0000000E+00
  -1.860000      0.0000000E+00
  -1.850000      0.0000000E+00
  -1.840000      0.0000000E+00
  -1.830000      0.0000000E+00
  -1.820000      0.0000000E+00
  -1.810000      0.0000000E+00
  -1.800000      0.0000000E+00
  -1.790000      0.0000000E+00
  -1.780000      0.0000000E+00
  -1.770000      0.0000000E+00
  -1.760000      0.0000000E+00
  -1.750000      0.0000000E+00
  -1.740000      0.0000000E+00
  -1.730000      0.0000000E+00
  -1.720000      0.0000000E+00
  -1.710000      0.0000000E+00
  -1.700000      0.0000000E+00
  -1.690000      0.0000000E+00
  -1.680000      0.0000000E+00
  -1.670000      0.0000000E+00
  -1.660000      0.0000000E+00
  -1.650000      0.0000000E+00
  -1.640000      0.0000000E+00
  -1.630000      0.0000000E+00
  -1.620000      0.0000000E+00
  -1.610000      0.0000000E+00
  -1.600000      0.0000000E+00
  -1.590000      0.0000000E+00
  -1.580000      0.0000000E+00
  -1.570000      0.0000000E+00
  -1.560000      0.0000000E+00
  -1.550000      0.0000000E+00
  -1.540000      0.0000000E+00
  -1.530000      0.0000000E+00
  -1.520000      0.0000000E+00
  -1.510000      0.0000000E+00
  -1.500000      0.0000000E+00
  -1.490000      0.0000000E+00
  -1.480000      0.0000000E+00
  -1.470000      0.0000000E+00
  -1.460000      0.0000000E+00
  -1.450000      0.0000000E+00
  -1.440000      0.0000000E+00
  -1.430000      0.0000000E+00
  -1.420000      0.0000000E+00
  -1.410000      0.0000000E+00
  -1.400000      0.0000000E+00
  -1.390000      0.0000000E+00
  -1.380000      0.0000000E+00
  -1.370000      0.0000000E+00
  -1.360000      0.0000000E+00
  -1.350000      0.0000000E+00
  -1.340000      0.0000000E+00
  -1.330000      0.0000000E+00
  -1.320000      0.0000000E+00
  -1.310000      0.0000000E+00
  -1.300000      0.0000000E+00
  -1.290000      0.0000000E+00
  -1.280000      0.0000000E+00
  -1.270000      0.0000000E+00
  -1.260000      0.0000000E+00
  -1.250000      0.0000000E+00
  -1.240000      0.0000000E+00
  -1.230000      0.0000000E+00
  -1.220000      0.0000000E+00
  -1.210000      0.0000000E+00
  -1.200000      0.0000000E+00
  -1.190000      0.0000000E+00
  -1.180000      0.0000000E+00
  -1.170000      0.0000000E+00
  -1.160000      0.0000000E+00
  -1.150000      0.0000000E+00
  -1.140000      0.0000000E+00
  -1.130000      0.0000000E+00
  -1.120000      0.0000000E+00
  -1.110000      0.0000000E+00
  -1.100000      0.0000000E+00
  -1.090000      0.0000000E+00
  -1.080000      0.0000000E+00
  -1.070000      0.0000000E+00
  -1.060000      0.0000000E+00
  -1.050000      0.0000000E+00
  -1.040000      0.0000000E+00
  -1.030000      0.0000000E+00
  -1.020000      0.0000000E+00
  -1.010000      0.0000000E+00
  -1.000000      0.0000000E+00
 -0.9900000      0.0000000E+00
 -0.9800000      0.0000000E+00
 -0.9700000      0.0000000E+00
 -0.9600000      0.0000000E+00
 -0.9500000      0.0000000E+00
 -0.9400000      0.0000000E+00
 -0.9300000      0.0000000E+00
 -0.9200000      0.0000000E+00
 -0.9100000      0.0000000E+00
 -0.9000000      0.0000000E+00
 -0.8900000      0.0000000E+00
 -0.8800000      0.0000000E+00
 -0.8700000      0.0000000E+00
 -0.8600000      0.0000000E+00
 -0.8500000      0.0000000E+00
 -0.8400000      0.0000000E+00
 -0.8300000      0.0000000E+00
 -0.8200000      0.0000000E+00
 -0.8100000      0.0000000E+00
 -0.8000000      0.0000000E+00
 -0.7900000      0.0000000E+00
 -0.7800000      0.0000000E+00
 -0.7700000      0.0000000E+00
 -0.7600000      0.0000000E+00
 -0.7500000      0.0000000E+00
 -0.7400000      0.0000000E+00
 -0.7300000      0.0000000E+00
 -0.7200000      0.0000000E+00
 -0.7100000      0.0000000E+00
 -0.7000000      0.0000000E+00
 -0.6900000      0.0000000E+00
 -0.6800000      0.0000000E+00
 -0.6700000      0.0000000E+00
 -0.6600000      0.0000000E+00
 -0.6500000      0.0000000E+00
 -0.6400000      0.0000000E+00
 -0.6300000      0.0000000E+00
 -0.6200000      0.0000000E+00
 -0.6100000      0.0000000E+00
 -0.6000000      0.0000000E+00
 -0.5900000      0.0000000E+00
 -0.5800000      0.0000000E+00
 -0.5700000      0.0000000E+00
 -0.5600000      0.0000000E+00
 -0.5500000      0.0000000E+00
 -0.5400000      0.0000000E+00
 -0.5300000      0.0000000E+00
 -0.5200000      0.0000000E+00
 -0.5100000      0.0000000E+00
 -0.5000000      0.0000000E+00
 -0.4900000      0.0000000E+00
 -0.4800000      0.0000000E+00
 -0.4700000      0.0000000E+00
 -0.4600000      0.0000000E+00
 -0.4500000      0.0000000E+00
 -0.4400000      0.0000000E+00
 -0.4300000      0.0000000E+00
 -0.4200000      0.0000000E+00
 -0.4100000      0.0000000E+00
 -0.4000000      0.0000000E+00
 -0.3900000      0.0000000E+00
 -0.3800000      0.0000000E+00
 -0.3700000      0.0000000E+00
 -0.3600000      0.0000000E+00
 -0.3500000      0.0000000E+00
 -0.3400000      0.0000000E+00
 -0.3300000      0.0000000E+00
 -0.3200000      0.0000000E+00
 -0.3100000      0.0000000E+00
 -0.3000000      0.0000000E+00
 -0.2900000      0.0000000E+00
 -0.2800000      0.0000000E+00
 -0.2700000      0.0000000E+00
 -0.2600000      0.0000000E+00
 -0.2500000      0.0000000E+00
 -0.2400000      0.0000000E+00
 -0.2300000      0.0000000E+00
 -0.2200000      0.0000000E+00
 -0.2100000      0.0000000E+00
 -0.2000000      0.0000000E+00
 -0.1900000      0.0000000E+00
 -0.1800000      0.0000000E+00
 -0.1700000      0.0000000E+00
 -0.1600000      0.0000000E+00
 -0.1500000      0.0000000E+00
 -0.1400000      0.0000000E+00
 -0.1300000      0.0000000E+00
 -0.1200000      0.0000000E+00
 -0.1100000      0.0000000E+00
 -0.1000000      0.0000000E+00
 -9.0000004E-02  0.0000000E+00
 -7.9999998E-02  0.0000000E+00
 -7.0000000E-02  0.0000000E+00
 -5.9999999E-02  0.0000000E+00
 -5.0000001E-02  0.0000000E+00
 -3.9999999E-02  0.0000000E+00
 -2.9999999E-02  0.0000000E+00
 -2.0000000E-02  0.0000000E+00
 -9.9999998E-03  0.0000000E+00
 -3.4694470E-17  0.0000000E+00
  9.9999998E-03  0.0000000E+00
  2.0000000E-02  0.0000000E+00
  2.9999999E-02  0.0000000E+00
  3.9999999E-02  0.0000000E+00
  5.0000001E-02  0.0000000E+00
  5.9999999E-02  0.0000000E+00
  7.0000000E-02  0.0000000E+00
  7.9999998E-02  0.0000000E+00
  9.0000004E-02  0.0000000E+00
  0.1000000      0.0000000E+00
  0.1100000      0.0000000E+00
  0.1200000      0.0000000E+00
  0.1300000      0.0000000E+00
  0.1400000      0.0000000E+00
  0.1500000      0.0000000E+00
  0.1600000      0.0000000E+00
  0.1700000      0.0000000E+00
  0.1800000      0.0000000E+00
  0.1900000      0.0000000E+00
  0.2000000      0.0000000E+00
  0.2100000      0.0000000E+00
  0.2200000      0.0000000E+00
  0.2300000      0.0000000E+00
  0.2400000      0.0000000E+00
  0.2500000      0.0000000E+00
  0.2600000      0.0000000E+00
  0.2700000      0.0000000E+00
  0.2800000      0.0000000E+00
  0.2900000      0.0000000E+00
  0.3000000      0.0000000E+00
  0.3100000      0.0000000E+00
  0.3200000      0.0000000E+00
  0.3300000      0.0000000E+00
  0.3400000      0.0000000E+00
  0.3500000      0.0000000E+00
  0.3600000      0.0000000E+00
  0.3700000      0.0000000E+00
  0.3800000      0.0000000E+00
  0.3900000      0.0000000E+00
  0.4000000      0.0000000E+00
  0.4100000      0.0000000E+00
  0.4200000      0.0000000E+00
  0.4300000      0.0000000E+00
  0.4400000      0.0000000E+00
  0.4500000      0.0000000E+00
  0.4600000      0.0000000E+00
  0.4700000      0.0000000E+00
  0.4800000      0.0000000E+00
  0.4900000      0.0000000E+00
  0.5000000      0.0000000E+00
  0.5100000      0.0000000E+00
  0.5200000      0.0000000E+00
  0.5300000      0.0000000E+00
  0.5400000      0.0000000E+00
  0.5500000      0.0000000E+00
  0.5600000      0.0000000E+00
  0.5700000      0.0000000E+00
  0.5800000      0.0000000E+00
  0.5900000      0.0000000E+00
  0.6000000      0.0000000E+00
  0.6100000      0.0000000E+00
  0.6200000      0.0000000E+00
  0.6300000      0.0000000E+00
  0.6400000      0.0000000E+00
  0.6500000      0.0000000E+00
  0.6600000      0.0000000E+00
  0.6700000      0.0000000E+00
  0.6800000      0.0000000E+00
  0.6900000      0.0000000E+00
  0.7000000      0.0000000E+00
  0.7100000      0.0000000E+00
  0.7200000      0.0000000E+00
  0.7300000      0.0000000E+00
  0.7400000      0.0000000E+00
  0.7500000      0.0000000E+00
  0.7600000      1.3474754E-38
  0.7700000      2.0231143E-38
  0.7800000      2.7963928E-38
  0.7900000      3.6616730E-38
  0.8000000      4.6302138E-38
  0.8100000      5.6005651E-38
  0.8200000      6.5235886E-38
  0.8300000      7.4597328E-38
  0.8400000      8.4256422E-38
  0.8500000      9.3499628E-38
  0.8600000      1.0255440E-37
  0.8700000      1.1203673E-37
  0.8800000      1.2077485E-37
  0.8900000      1.2666422E-37
  0.9000000      1.2935190E-37
  0.9100000      1.2849891E-37
  0.9200000      1.2387254E-37
  0.9300000      1.1711489E-37
  0.9400000      1.0852746E-37
  0.9500000      9.6774984E-38
  0.9600000      8.2664670E-38
  0.9700000      6.7178103E-38
  0.9800000      4.9259654E-38
  0.9900000      2.8231114E-38
   1.000000      0.0000000E+00
   1.010000     -2.2631641E-38
   1.020000     -5.3521961E-38
   1.030000     -9.0632022E-38
   1.040000     -1.3334804E-37
   1.050000     -1.7959709E-37
   1.060000     -2.2879448E-37
   1.070000     -2.8017716E-37
   1.080000     -3.3645418E-37
   1.090000     -3.9903729E-37
   1.100000     -4.6504334E-37
   1.110000     -5.3208984E-37
   1.120000     -5.9926495E-37
   1.130000     -6.7242345E-37
   1.140000     -7.4577647E-37
   1.150000     -8.1390563E-37
   1.160000     -8.7418442E-37
   1.170000     -9.2040826E-37
   1.180000     -9.5457357E-37
   1.190000     -9.9663979E-37
   1.200000     -1.0591390E-36
   1.210000     -1.1336681E-36
   1.220000     -1.1640873E-36
   1.230000     -1.1089742E-36
   1.240000     -9.9699287E-37
   1.250000     -7.2699705E-37
   1.260000     -3.0115655E-37
   1.270000      1.7868754E-37
   1.280000      6.8059170E-37
   1.290000      1.2094218E-36
   1.300000      1.7945675E-36
   1.310000      2.4128569E-36
   1.320000      3.0599132E-36
   1.330000      3.7287080E-36
   1.340000      4.3905327E-36
   1.350000      5.0378654E-36
   1.360000      5.5278300E-36
   1.370000      5.8348059E-36
   1.380000      6.0890141E-36
   1.390000      6.2330430E-36
   1.400000      6.2521850E-36
   1.410000      6.0979480E-36
   1.420000      5.6011603E-36
   1.430000      4.8118460E-36
   1.440000      3.8681419E-36
   1.450000      2.8162329E-36
   1.460000      1.6837062E-36
   1.470000      3.6347853E-37
   1.480000     -1.1730567E-36
   1.490000     -2.8264632E-36
   1.500000     -4.5666287E-36
   1.510000     -6.2763700E-36
   1.520000     -7.8256384E-36
   1.530000     -9.2678259E-36
   1.540000     -1.0644898E-35
   1.550000     -1.1794337E-35
   1.560000     -1.2535162E-35
   1.570000     -1.2849328E-35
   1.580000     -1.2587246E-35
   1.590000     -1.1812268E-35
   1.600000     -1.0242835E-35
   1.610000     -7.9530437E-36
   1.620000     -5.4836636E-36
   1.630000     -2.8688548E-36
   1.640000     -4.4236979E-37
   1.650000      1.3858947E-36
   1.660000      2.7727109E-36
   1.670000      4.1157297E-36
   1.680000      5.1420944E-36
   1.690000      5.6837771E-36
   1.700000      6.1778492E-36
   1.710000      6.8431170E-36
   1.720000      7.6349972E-36
   1.730000      8.5472035E-36
   1.740000      9.6084660E-36
   1.750000      1.0821035E-35
   1.760000      1.2103560E-35
   1.770000      1.4275991E-35
   1.780000      1.6624832E-35
   1.790000      1.9087028E-35
   1.800000      2.6006309E-35
   1.810000      3.6391494E-35
   1.820000      4.6294888E-35
   1.830000      5.6878091E-35
   1.840000      7.3816367E-35
   1.850000      9.3245538E-35
   1.860000      1.1056204E-34
   1.870000      1.2997062E-34
   1.880000      1.4942026E-34
   1.890000      1.6730471E-34
   1.900000      1.8092484E-34
   1.910000      1.9158562E-34
   1.920000      2.0252753E-34
   1.930000      2.1287519E-34
   1.940000      2.2064240E-34
   1.950000      2.2304941E-34
   1.960000      2.2060089E-34
   1.970000      2.1426390E-34
   1.980000      2.0385212E-34
   1.990000      1.8809257E-34
   2.000000      1.6628286E-34
   2.010000      1.3986564E-34
   2.020000      1.0956155E-34
   2.030000      7.3409238E-35
   2.040000      2.3050239E-35
   2.050000     -3.8459635E-35
   2.060000     -1.0157496E-34
   2.070000     -1.6863125E-34
   2.080000     -2.4718718E-34
   2.090000     -3.3514336E-34
   2.100000     -4.2440976E-34
   2.110000     -5.1887519E-34
   2.120000     -6.2038863E-34
   2.130000     -7.2642842E-34
   2.140000     -8.3792130E-34
   2.150000     -9.5479207E-34
   2.160000     -1.0756846E-33
   2.170000     -1.1978107E-33
   2.180000     -1.3222467E-33
   2.190000     -1.4516122E-33
   2.200000     -1.5838016E-33
   2.210000     -1.7143468E-33
   2.220000     -1.8407509E-33
   2.230000     -1.9634670E-33
   2.240000     -2.0807877E-33
   2.250000     -2.1909946E-33
   2.260000     -2.2920467E-33
   2.270000     -2.3817628E-33
   2.280000     -2.4599387E-33
   2.290000     -2.5221320E-33
   2.300000     -2.5626497E-33
   2.310000     -2.5790162E-33
   2.320000     -2.5761493E-33
   2.330000     -2.5493567E-33
   2.340000     -2.4895003E-33
   2.350000     -2.3955135E-33
   2.360000     -2.2646927E-33
   2.370000     -2.0947855E-33
   2.380000     -1.8818102E-33
   2.390000     -1.6234841E-33
   2.400000     -1.3162454E-33
   2.410000     -9.5769205E-34
   2.420000     -5.4595183E-34
   2.430000     -7.7394072E-35
   2.440000      4.4845054E-34
   2.450000      1.0317375E-33
   2.460000      1.6742173E-33
   2.470000      2.3752889E-33
   2.480000      3.1362972E-33
   2.490000      3.9572305E-33
   2.500000      4.8352766E-33
   2.510000      5.7684461E-33
   2.520000      6.7540665E-33
   2.530000      7.7886463E-33
   2.540000      8.8677898E-33
   2.550000      9.9862337E-33
   2.560000      1.1137810E-32
   2.570000      1.2315503E-32
   2.580000      1.3511254E-32
   2.590000      1.4715927E-32
   2.600000      1.5919589E-32
   2.610000      1.7111252E-32
   2.620000      1.8278661E-32
   2.630000      1.9408664E-32
   2.640000      2.0487127E-32
   2.650000      2.1498912E-32
   2.660000      2.2428019E-32
   2.670000      2.3257572E-32
   2.680000      2.3969873E-32
   2.690000      2.4546479E-32
   2.700000      2.4968293E-32
   2.710000      2.5215703E-32
   2.720000      2.5268556E-32
   2.730000      2.5106385E-32
   2.740000      2.4708612E-32
   2.750000      2.4054542E-32
   2.760000      2.3123646E-32
   2.770000      2.1895722E-32
   2.780000      2.0351119E-32
   2.790000      1.8470954E-32
   2.800000      1.6237364E-32
   2.810000      1.3633754E-32
   2.820000      1.0645076E-32
   2.830000      7.2580759E-33
   2.840000      3.4615932E-33
   2.850000     -7.5313749E-34
   2.860000     -5.3922483E-33
   2.870000     -1.0458932E-32
   2.880000     -1.5953260E-32
   2.890000     -2.1871621E-32
   2.900000     -2.8206642E-32
   2.910000     -3.4947094E-32
   2.920000     -4.2077376E-32
   2.930000     -4.9577350E-32
   2.940000     -5.7422017E-32
   2.950000     -6.5580677E-32
   2.960000     -7.4018663E-32
   2.970000     -8.2695810E-32
   2.980000     -9.1564891E-32
   2.990000     -1.0057347E-31
   3.000000     -1.0966309E-31
   3.010000     -1.1876912E-31
   3.020000     -1.2782079E-31
   3.030000     -1.3674103E-31
   3.040000     -1.4544654E-31
   3.050000     -1.5384804E-31
   3.060000     -1.6185026E-31
   3.070000     -1.6935211E-31
   3.080000     -1.7624712E-31
   3.090000     -1.8242349E-31
   3.100000     -1.8776469E-31
   3.110000     -1.9214999E-31
   3.120000     -1.9545491E-31
   3.130000     -1.9755186E-31
   3.140000     -1.9831081E-31
   3.150000     -1.9760011E-31
   3.160000     -1.9528735E-31
   3.170000     -1.9124027E-31
   3.180000     -1.8532782E-31
   3.190000     -1.7742123E-31
   3.200000     -1.6739520E-31
   3.210000     -1.5512912E-31
   3.220000     -1.4050840E-31
   3.230000     -1.2342585E-31
   3.240000     -1.0378307E-31
   3.250000     -8.1491916E-32
   3.260000     -5.6476062E-32
   3.270000     -2.8672494E-32
   3.280000      1.9669426E-33
   3.290000      3.5473942E-32
   3.300000      7.1862143E-32
   3.310000      1.1112557E-31
   3.320000      1.5323700E-31
   3.330000      1.9814641E-31
   3.340000      2.4577951E-31
   3.350000      2.9603605E-31
   3.360000      3.4878845E-31
   3.370000      4.0388030E-31
   3.380000      4.6112490E-31
   3.390000      5.2030417E-31
   3.400000      5.8116723E-31
   3.410000      6.4342936E-31
   3.420000      7.0677096E-31
   3.430000      7.7083696E-31
   3.440000      8.3523576E-31
   3.450000      8.9953934E-31
   3.460000      9.6328226E-31
   3.470000      1.0259623E-30
   3.480000      1.0870404E-30
   3.490000      1.1459414E-30
   3.500000      1.2020544E-30
   3.510000      1.2547346E-30
   3.520000      1.3033043E-30
   3.530000      1.3470546E-30
   3.540000      1.3852479E-30
   3.550000      1.4171205E-30
   3.560000      1.4418856E-30
   3.570000      1.4587359E-30
   3.580000      1.4668485E-30
   3.590000      1.4653879E-30
   3.600000      1.4535116E-30
   3.610000      1.4303742E-30
   3.620000      1.3951331E-30
   3.630000      1.3469547E-30
   3.640000      1.2850193E-30
   3.650000      1.2085289E-30
   3.660000      1.1167134E-30
   3.670000      1.0088377E-30
   3.680000      8.8420939E-31
   3.690000      7.4218640E-31
   3.700000      5.8218549E-31
   3.710000      4.0369006E-31
   3.720000      2.0625927E-31
   3.730000     -1.0463393E-32
   3.740000     -2.4674134E-31
   3.750000     -5.0273528E-31
   3.760000     -7.7849394E-31
   3.770000     -1.0739451E-30
   3.780000     -1.3888855E-30
   3.790000     -1.7229719E-30
   3.800000     -2.0757111E-30
   3.810000     -2.4464509E-30
   3.820000     -2.8343714E-30
   3.830000     -3.2384749E-30
   3.840000     -3.6575791E-30
   3.850000     -4.0903066E-30
   3.860000     -4.5350786E-30
   3.870000     -4.9901082E-30
   3.880000     -5.4533925E-30
   3.890000     -5.9227082E-30
   3.900000     -6.3956048E-30
   3.910000     -6.8694047E-30
   3.920000     -7.3411958E-30
   3.930000     -7.8078321E-30
   3.940000     -8.2659341E-30
   3.950000     -8.7118877E-30
   3.960000     -9.1418485E-30
   3.970000     -9.5517451E-30
   3.980000     -9.9372847E-30
   3.990000     -1.0293960E-29
   4.000000     -1.0617059E-29
   4.010000     -1.0901675E-29
   4.020000     -1.1142720E-29
   4.030000     -1.1334940E-29
   4.040000     -1.1472929E-29
   4.050000     -1.1551152E-29
   4.060000     -1.1563962E-29
   4.070000     -1.1505626E-29
   4.080000     -1.1370348E-29
   4.090000     -1.1152297E-29
   4.100000     -1.0845638E-29
   4.110000     -1.0444561E-29
   4.120000     -9.9433220E-30
   4.130000     -9.3362704E-30
   4.140000     -8.6178963E-30
   4.150000     -7.7828657E-30
   4.160000     -6.8260645E-30
   4.170000     -5.7426491E-30
   4.180000     -4.5280896E-30
   4.190000     -3.1782215E-30
   4.200000     -1.6892992E-30
   4.210000     -5.8047956E-32
   4.220000      1.7182784E-30
   4.230000      3.6418414E-30
   4.240000      5.7141582E-30
   4.250000      7.9360396E-30
   4.260000      1.0307530E-29
   4.270000      1.2827847E-29
   4.280000      1.5495318E-29
   4.290000      1.8307309E-29
   4.300000      2.1260180E-29
   4.310000      2.4349203E-29
   4.320000      2.7568511E-29
   4.330000      3.0911040E-29
   4.340000      3.4368464E-29
   4.350000      3.7931139E-29
   4.360000      4.1588050E-29
   4.370000      4.5326758E-29
   4.380000      4.9133356E-29
   4.390000      5.2992420E-29
   4.400000      5.6886969E-29
   4.410000      6.0798419E-29
   4.420000      6.4706582E-29
   4.430000      6.8589612E-29
   4.440000      7.2423988E-29
   4.450000      7.6184516E-29
   4.460000      7.9844301E-29
   4.470000      8.3374777E-29
   4.480000      8.6745696E-29
   4.490000      8.9925142E-29
   4.500000      9.2879579E-29
   4.510000      9.5573882E-29
   4.520000      9.7971370E-29
   4.530000      1.0003389E-28
   4.540000      1.0172185E-28
   4.550000      1.0299436E-28
   4.560000      1.0380930E-28
   4.570000      1.0412336E-28
   4.580000      1.0389230E-28
   4.590000      1.0307098E-28
   4.600000      1.0161358E-28
   4.610000      9.9473722E-29
   4.620000      9.6604676E-29
   4.630000      9.2959553E-29
   4.640000      8.8491534E-29
   4.650000      8.3154090E-29
   4.660000      7.6901263E-29
   4.670000      6.9687885E-29
   4.680000      6.1469894E-29
   4.690000      5.2204630E-29
   4.700000      4.1851171E-29
   4.710000      3.0370612E-29
   4.720000      1.7726471E-29
   4.730000      3.8850472E-30
   4.740000     -1.1184220E-29
   4.750000     -2.7508349E-29
   4.760000     -4.5110404E-29
   4.770000     -6.4009064E-29
   4.780000     -8.4218190E-29
   4.790000     -1.0574639E-28
   4.800000     -1.2859653E-28
   4.810000     -1.5276532E-28
   4.820000     -1.7824277E-28
   4.830000     -2.0501175E-28
   4.840000     -2.3304749E-28
   4.850000     -2.6231710E-28
   4.860000     -2.9277908E-28
   4.870000     -3.2438272E-28
   4.880000     -3.5706782E-28
   4.890000     -3.9076396E-28
   4.900000     -4.2539021E-28
   4.910000     -4.6085457E-28
   4.920000     -4.9705344E-28
   4.930000     -5.3387130E-28
   4.940000     -5.7118036E-28
   4.950000     -6.0883980E-28
   4.960000     -6.4669579E-28
   4.970000     -6.8458085E-28
   4.980000     -7.2231381E-28
   4.990000     -7.5969924E-28
   5.000000     -7.9652731E-28
   5.010000     -8.3257374E-28
   5.020000     -8.6759937E-28
   5.030000     -9.0135043E-28
   5.040000     -9.3355824E-28
   5.050000     -9.6393930E-28
   5.060000     -9.9219529E-28
   5.070000     -1.0180136E-27
   5.080000     -1.0410671E-27
   5.090000     -1.0610148E-27
   5.100000     -1.0775021E-27
   5.110000     -1.0901614E-27
   5.120000     -1.0986126E-27
   5.130000     -1.1024638E-27
   5.140000     -1.1013123E-27
   5.150000     -1.0947453E-27
   5.160000     -1.0823410E-27
   5.170000     -1.0636698E-27
   5.180000     -1.0382955E-27
   5.190000     -1.0057765E-27
   5.200000     -9.6566782E-28
   5.210000     -9.1752217E-28
   5.220000     -8.6089242E-28
   5.230000     -7.9533314E-28
   5.240000     -7.2040281E-28
   5.250000     -6.3566579E-28
   5.260000     -5.4069530E-28
   5.270000     -4.3507528E-28
   5.280000     -3.1840372E-28
   5.290000     -1.9029504E-28
   5.300000     -5.0383314E-29
   5.310000      1.0167443E-28
   5.320000      2.6619506E-28
   5.330000      4.4346583E-28
   5.340000      6.3374073E-28
   5.350000      8.3723690E-28
   5.360000      1.0541305E-27
   5.370000      1.2845524E-27
   5.380000      1.5285848E-27
   5.390000      1.7862563E-27
   5.400000      2.0575380E-27
   5.410000      2.3423383E-27
   5.420000      2.6404993E-27
   5.430000      2.9517912E-27
   5.440000      3.2759086E-27
   5.450000      3.6124641E-27
   5.460000      3.9609862E-27
   5.470000      4.3209113E-27
   5.480000      4.6915819E-27
   5.490000      5.0722393E-27
   5.500000      5.4620205E-27
   5.510000      5.8599531E-27
   5.520000      6.2649507E-27
   5.530000      6.6758094E-27
   5.540000      7.0912001E-27
   5.550000      7.5096708E-27
   5.560000      7.9296352E-27
   5.570000      8.3493739E-27
   5.580000      8.7670319E-27
   5.590000      9.1806099E-27
   5.600000      9.5879680E-27
   5.610000      9.9868196E-27
   5.620000      1.0374731E-26
   5.630000      1.0749118E-26
   5.640000      1.1107248E-26
   5.650000      1.1446238E-26
   5.660000      1.1763054E-26
   5.670000      1.2054514E-26
   5.680000      1.2317289E-26
   5.690000      1.2547904E-26
   5.700000      1.2742741E-26
   5.710000      1.2898046E-26
   5.720000      1.3009933E-26
   5.730000      1.3074388E-26
   5.740000      1.3087273E-26
   5.750000      1.3044347E-26
   5.760000      1.2941255E-26
   5.770000      1.2773557E-26
   5.780000      1.2536724E-26
   5.790000      1.2226162E-26
   5.800000      1.1837219E-26
   5.810000      1.1365205E-26
   5.820000      1.0805401E-26
   5.830000      1.0153086E-26
   5.840000      9.4035463E-27
   5.850000      8.5521050E-27
   5.860000      7.5941374E-27
   5.870000      6.5251000E-27
   5.880000      5.3405498E-27
   5.890000      4.0361737E-27
   5.900000      2.6078182E-27
   5.910000      1.0515148E-27
   5.920000     -6.3648537E-28
   5.930000     -2.4596801E-27
   5.940000     -4.4212830E-27
   5.950000     -6.5241878E-27
   5.960000     -8.7709353E-27
   5.970000     -1.1163666E-26
   5.980000     -1.3704087E-26
   5.990000     -1.6393429E-26
   6.000000     -1.9232410E-26
   6.010000     -2.2221184E-26
   6.020000     -2.5359304E-26
   6.030000     -2.8645666E-26
   6.040000     -3.2078483E-26
   6.050000     -3.5655216E-26
   6.060000     -3.9372541E-26
   6.070000     -4.3226305E-26
   6.080000     -4.7211470E-26
   6.090000     -5.1322061E-26
   6.100000     -5.5551129E-26
   6.110000     -5.9890708E-26
   6.120000     -6.4331755E-26
   6.130000     -6.8864112E-26
   6.140000     -7.3476465E-26
   6.150000     -7.8156289E-26
   6.160000     -8.2889825E-26
   6.170000     -8.7662020E-26
   6.180000     -9.2456520E-26
   6.190000     -9.7255592E-26
   6.200000     -1.0204013E-25
   6.210000     -1.0678960E-25
   6.220000     -1.1148204E-25
   6.230000     -1.1609402E-25
   6.240000     -1.2060065E-25
   6.250000     -1.2497551E-25
   6.260000     -1.2919074E-25
   6.270000     -1.3321690E-25
   6.280000     -1.3702314E-25
   6.290000     -1.4057706E-25
   6.300000     -1.4384482E-25
   6.310000     -1.4679113E-25
   6.320000     -1.4937929E-25
   6.330000     -1.5157125E-25
   6.340000     -1.5332760E-25
   6.350000     -1.5460768E-25
   6.360000     -1.5536963E-25
   6.370000     -1.5557048E-25
   6.380000     -1.5516618E-25
   6.390000     -1.5411179E-25
   6.400000     -1.5236152E-25
   6.410000     -1.4986884E-25
   6.420000     -1.4658668E-25
   6.430000     -1.4246750E-25
   6.440000     -1.3746347E-25
   6.450000     -1.3152666E-25
   6.460000     -1.2460917E-25
   6.470000     -1.1666338E-25
   6.480000     -1.0764212E-25
   6.490000     -9.7498881E-26
   6.500000     -8.6188064E-26
   6.510000     -7.3665200E-26
   6.520000     -5.9887263E-26
   6.530000     -4.4812942E-26
   6.540000     -2.8402829E-26
   6.550000     -1.0619793E-26
   6.560000      8.5707164E-27
   6.570000      2.9200340E-26
   6.580000      5.1297495E-26
   6.590000      7.4887065E-26
   6.600000      9.9989938E-26
   6.610000      1.2662273E-25
   6.620000      1.5479736E-25
   6.630000      1.8452065E-25
   6.640000      2.1579403E-25
   6.650000      2.4861306E-25
   6.660000      2.8296695E-25
   6.670000      3.1883830E-25
   6.680000      3.5620260E-25
   6.690000      3.9502777E-25
   6.700000      4.3527382E-25
   6.710000      4.7689250E-25
   6.720000      5.1982655E-25
   6.730000      5.6400976E-25
   6.740000      6.0936626E-25
   6.750000      6.5581015E-25
   6.760000      7.0324509E-25
   6.770000      7.5156405E-25
   6.780000      8.0064900E-25
   6.790000      8.5037026E-25
   6.800000      9.0058629E-25
   6.810000      9.5114379E-25
   6.820000      1.0018768E-24
   6.830000      1.0526068E-24
   6.840000      1.1031424E-24
   6.850000      1.1532792E-24
   6.860000      1.2027996E-24
   6.870000      1.2514727E-24
   6.880000      1.2990542E-24
   6.890000      1.3452865E-24
   6.900000      1.3898987E-24
   6.910000      1.4326061E-24
   6.920000      1.4731115E-24
   6.930000      1.5111043E-24
   6.940000      1.5462612E-24
   6.950000      1.5782466E-24
   6.960000      1.6067126E-24
   6.970000      1.6313002E-24
   6.980000      1.6516387E-24
   6.990000      1.6673475E-24
   7.000000      1.6780361E-24
   7.010000      1.6833047E-24
   7.020000      1.6827456E-24
   7.030000      1.6759441E-24
   7.040000      1.6624786E-24
   7.050000      1.6419235E-24
   7.060000      1.6138483E-24