  -2.600000      0.0000000E+00
  -2.590000      0.0000000E+00
  -2.580000      0.0000000E+00
  -2.570000      0.0000000E+00
  -2.560000      0.0000000E+00
  -2.550000      0.0000000E+00
  -2.540000      0.0000000E+00
  -2.530000      0.0000000E+00
  -2.520000      0.0000000E+00
  -2.510000      0.0000000E+00
  -2.500000      0.0000000E+00
  -2.490000      0.0000000E+00
  -2.480000      0.0000000E+00
  -2.470000      0.0000000E+00
  -2.460000      0.0000000E+00
  -2.450000      0.0000000E+00
  -2.440000      0.0000000E+00
  -2.430000      0.0000000E+00
  -2.420000      0.0000000E+00
  -2.410000      0.0000000E+00
  -2.400000      0.0000000E+00
  -2.390000      0.0000000E+00
  -2.380000      0.0000000E+00
  -2.370000      0.0000000E+00
  -2.360000      0.0000000E+00
  -2.350000      0.0000000E+00
  -2.340000      0.0000000E+00
  -2.330000      0.0000000E+00
  -2.320000      0.0000000E+00
  -2.310000      0.0000000E+00
  -2.300000      0.0000000E+00
  -2.290000      0.0000000E+00
  -2.280000      0.0000000E+00
  -2.270000      0.0000000E+00
  -2.260000      0.0000000E+00
  -2.250000      0.0000000E+00
  -2.240000      0.0000000E+00
  -2.230000      0.0000000E+00
  -2.220000      0.0000000E+00
  -2.210000      0.0000000E+00
  -2.200000      0.0000000E+00
  -2.190000      0.0000000E+00
  -2.180000      0.0000000E+00
  -2.170000      0.0000000E+00
  -2.160000      0.0000000E+00
  -2.150000      0.0000000E+00
  -2.140000      0.0000000E+00
  -2.130000      0.0000000E+00
  -2.120000      0.0000000E+00
  -2.110000      0.0000000E+00
  -2.100000      0.0000000E+00
  -2.090000      0.0000000E+00
  -2.080000      0.0000000E+00
  -2.070000      0.0000000E+00
  -2.060000      0.0000000E+00
  -2.050000      0.0000000E+00
  -2.040000      0.0000000E+00
  -2.030000      0.0000000E+00
  -2.020000      0.0000000E+00
  -2.010000      0.0000000E+00
  -2.000000      0.0000000E+00
  -1.990000      0.0000000E+00
  -1.980000      0.0000000E+00
  -1.970000      0.0000000E+00
  -1.960000      0.0000000E+00
  -1.950000      0.0000000E+00
  -1.940000      0.0000000E+00
  -1.930000      0.0000000E+00
  -1.920000      0.0000000E+00
  -1.910000      0.0000000E+00
  -1.900000      0.0000000E+00
  -1.890000      0.0000000E+00
  -1.880000      0.0000000E+00
  -1.870000      0.0000000E+00
  -1.860000      0.0000000E+00
  -1.850000      0.0000000E+00
  -1.840000      0.0000000E+00
  -1.830000      0.0000000E+00
  -1.820000      0.0000000E+00
  -1.810000      0.0000000E+00
  -1.800000      0.0000000E+00
  -1.790000      0.0000000E+00
  -1.780000      0.0000000E+00
  -1.770000      0.0000000E+00
  -1.760000      0.0000000E+00
  -1.750000      0.0000000E+00
  -1.740000      0.0000000E+00
  -1.730000      0.0000000E+00
  -1.720000      0.0000000E+00
  -1.710000      0.0000000E+00
  -1.700000      0.0000000E+00
  -1.690000      0.0000000E+00
  -1.680000      0.0000000E+00
  -1.670000      0.0000000E+00
  -1.660000      0.0000000E+00
  -1.650000      0.0000000E+00
  -1.640000      0.0000000E+00
  -1.630000      0.0000000E+00
  -1.620000      0.0000000E+00
  -1.610000      0.0000000E+00
  -1.600000      0.0000000E+00
  -1.590000      0.0000000E+00
  -1.580000      0.0000000E+00
  -1.570000      0.0000000E+00
  -1.560000      0.0000000E+00
  -1.550000      0.0000000E+00
  -1.540000      0.0000000E+00
  -1.530000      0.0000000E+00
  -1.520000      0.0000000E+00
  -1.510000      0.0000000E+00
  -1.500000      0.0000000E+00
  -1.490000      0.0000000E+00
  -1.480000      0.0000000E+00
  -1.470000      0.0000000E+00
  -1.460000      0.0000000E+00
  -1.450000      0.0000000E+00
  -1.440000      0.0000000E+00
  -1.430000      0.0000000E+00
  -1.420000      0.0000000E+00
  -1.410000      0.0000000E+00
  -1.400000      0.0000000E+00
  -1.390000      0.0000000E+00
  -1.380000      0.0000000E+00
  -1.370000      0.0000000E+00
  -1.360000      0.0000000E+00
  -1.350000      0.0000000E+00
  -1.340000      0.0000000E+00
  -1.330000      0.0000000E+00
  -1.320000      0.0000000E+00
  -1.310000      0.0000000E+00
  -1.300000      0.0000000E+00
  -1.290000      0.0000000E+00
  -1.280000      0.0000000E+00
  -1.270000      0.0000000E+00
  -1.260000      0.0000000E+00
  -1.250000      0.0000000E+00
  -1.240000      0.0000000E+00
  -1.230000      0.0000000E+00
  -1.220000      0.0000000E+00
  -1.210000      0.0000000E+00
  -1.200000      0.0000000E+00
  -1.190000      0.0000000E+00
  -1.180000      0.0000000E+00
  -1.170000      0.0000000E+00
  -1.160000      0.0000000E+00
  -1.150000      0.0000000E+00
  -1.140000      0.0000000E+00
  -1.130000      0.0000000E+00
  -1.120000      0.0000000E+00
  -1.110000      0.0000000E+00
  -1.100000      0.0000000E+00
  -1.090000      0.0000000E+00
  -1.080000      0.0000000E+00
  -1.070000      0.0000000E+00
  -1.060000      0.0000000E+00
  -1.050000      0.0000000E+00
  -1.040000      0.0000000E+00
  -1.030000      0.0000000E+00
  -1.020000      0.0000000E+00
  -1.010000      0.0000000E+00
  -1.000000      0.0000000E+00
 -0.9900000      0.0000000E+00
 -0.9800000      0.0000000E+00
 -0.9700000      0.0000000E+00
 -0.9600000      0.0000000E+00
 -0.9500000      0.0000000E+00
 -0.9400000      0.0000000E+00
 -0.9300000      0.0000000E+00
 -0.9200000      0.0000000E+00
 -0.9100000      0.0000000E+00
 -0.9000000      0.0000000E+00
 -0.8900000      0.0000000E+00
 -0.8800000      0.0000000E+00
 -0.8700000      0.0000000E+00
 -0.8600000      0.0000000E+00
 -0.8500000      0.0000000E+00
 -0.8400000      0.0000000E+00
 -0.8300000      0.0000000E+00
 -0.8200000      0.0000000E+00
 -0.8100000      0.0000000E+00
 -0.8000000      0.0000000E+00
 -0.7900000      0.0000000E+00
 -0.7800000      0.0000000E+00
 -0.7700000      0.0000000E+00
 -0.7600000      0.0000000E+00
 -0.7500000      0.0000000E+00
 -0.7400000      0.0000000E+00
 -0.7300000      0.0000000E+00
 -0.7200000      0.0000000E+00
 -0.7100000      0.0000000E+00
 -0.7000000      0.0000000E+00
 -0.6900000      0.0000000E+00
 -0.6800000      0.0000000E+00
 -0.6700000      0.0000000E+00
 -0.6600000      0.0000000E+00
 -0.6500000      0.0000000E+00
 -0.6400000      0.0000000E+00
 -0.6300000      0.0000000E+00
 -0.6200000      0.0000000E+00
 -0.6100000      0.0000000E+00
 -0.6000000      0.0000000E+00
 -0.5900000      0.0000000E+00
 -0.5800000      0.0000000E+00
 -0.5700000      0.0000000E+00
 -0.5600000      0.0000000E+00
 -0.5500000      0.0000000E+00
 -0.5400000      0.0000000E+00
 -0.5300000      0.0000000E+00
 -0.5200000      0.0000000E+00
 -0.5100000      0.0000000E+00
 -0.5000000      0.0000000E+00
 -0.4900000      0.0000000E+00
 -0.4800000      0.0000000E+00
 -0.4700000      0.0000000E+00
 -0.4600000      0.0000000E+00
 -0.4500000      0.0000000E+00
 -0.4400000      0.0000000E+00
 -0.4300000      0.0000000E+00
 -0.4200000      0.0000000E+00
 -0.4100000      0.0000000E+00
 -0.4000000      0.0000000E+00
 -0.3900000      0.0000000E+00
 -0.3800000      0.0000000E+00
 -0.3700000      0.0000000E+00
 -0.3600000      0.0000000E+00
 -0.3500000      0.0000000E+00
 -0.3400000      0.0000000E+00
 -0.3300000      0.0000000E+00
 -0.3200000      0.0000000E+00
 -0.3100000      0.0000000E+00
 -0.3000000      0.0000000E+00
 -0.2900000      0.0000000E+00
 -0.2800000      0.0000000E+00
 -0.2700000      0.0000000E+00
 -0.2600000      0.0000000E+00
 -0.2500000      0.0000000E+00
 -0.2400000      0.0000000E+00
 -0.2300000      0.0000000E+00
 -0.2200000      0.0000000E+00
 -0.2100000      0.0000000E+00
 -0.2000000      0.0000000E+00
 -0.1900000      0.0000000E+00
 -0.1800000      0.0000000E+00
 -0.1700000      0.0000000E+00
 -0.1600000      0.0000000E+00
 -0.1500000      0.0000000E+00
 -0.1400000      0.0000000E+00
 -0.1300000      0.0000000E+00
 -0.1200000      0.0000000E+00
 -0.1100000      0.0000000E+00
 -0.1000000      0.0000000E+00
 -9.0000004E-02  0.0000000E+00
 -7.9999998E-02  0.0000000E+00
 -7.0000000E-02  0.0000000E+00
 -5.9999999E-02  0.0000000E+00
 -5.0000001E-02  0.0000000E+00
 -3.9999999E-02  0.0000000E+00
 -2.9999999E-02  0.0000000E+00
 -2.0000000E-02  0.0000000E+00
 -9.9999998E-03  0.0000000E+00
 -3.4694470E-17  0.0000000E+00
  9.9999998E-03  0.0000000E+00
  2.0000000E-02  0.0000000E+00
  2.9999999E-02  0.0000000E+00
  3.9999999E-02  0.0000000E+00
  5.0000001E-02  0.0000000E+00
  5.9999999E-02  0.0000000E+00
  7.0000000E-02  0.0000000E+00
  7.9999998E-02  0.0000000E+00
  9.0000004E-02  0.0000000E+00
  0.1000000      0.0000000E+00
  0.1100000      0.0000000E+00
  0.1200000      0.0000000E+00
  0.1300000      0.0000000E+00
  0.1400000      0.0000000E+00
  0.1500000      0.0000000E+00
  0.1600000      0.0000000E+00
  0.1700000      0.0000000E+00
  0.1800000      0.0000000E+00
  0.1900000      0.0000000E+00
  0.2000000      0.0000000E+00
  0.2100000      0.0000000E+00
  0.2200000      0.0000000E+00
  0.2300000      0.0000000E+00
  0.2400000      0.0000000E+00
  0.2500000      0.0000000E+00
  0.2600000      0.0000000E+00
  0.2700000      0.0000000E+00
  0.2800000      0.0000000E+00
  0.2900000      0.0000000E+00
  0.3000000      0.0000000E+00
  0.3100000      0.0000000E+00
  0.3200000      0.0000000E+00
  0.3300000      0.0000000E+00
  0.3400000      0.0000000E+00
  0.3500000      0.0000000E+00
  0.3600000      0.0000000E+00
  0.3700000      0.0000000E+00
  0.3800000      0.0000000E+00
  0.3900000      0.0000000E+00
  0.4000000      0.0000000E+00
  0.4100000      0.0000000E+00
  0.4200000      0.0000000E+00
  0.4300000      0.0000000E+00
  0.4400000      0.0000000E+00
  0.4500000      0.0000000E+00
  0.4600000      0.0000000E+00
  0.4700000      0.0000000E+00
  0.4800000      0.0000000E+00
  0.4900000      0.0000000E+00
  0.5000000      0.0000000E+00
  0.5100000      0.0000000E+00
  0.5200000      0.0000000E+00
  0.5300000      0.0000000E+00
  0.5400000      0.0000000E+00
  0.5500000      0.0000000E+00
  0.5600000      0.0000000E+00
  0.5700000      0.0000000E+00
  0.5800000      0.0000000E+00
  0.5900000      0.0000000E+00
  0.6000000      0.0000000E+00
  0.6100000      0.0000000E+00
  0.6200000      0.0000000E+00
  0.6300000      0.0000000E+00
  0.6400000      0.0000000E+00
  0.6500000      0.0000000E+00
  0.6600000      0.0000000E+00
  0.6700000      0.0000000E+00
  0.6800000      0.0000000E+00
  0.6900000      0.0000000E+00
  0.7000000      0.0000000E+00
  0.7100000      0.0000000E+00
  0.7200000      0.0000000E+00
  0.7300000      0.0000000E+00
  0.7400000      0.0000000E+00
  0.7500000      0.0000000E+00
  0.7600000      0.0000000E+00
  0.7700000      0.0000000E+00
  0.7800000      0.0000000E+00
  0.7900000      0.0000000E+00
  0.8000000      0.0000000E+00
  0.8100000      0.0000000E+00
  0.8200000      0.0000000E+00
  0.8300000      0.0000000E+00
  0.8400000      0.0000000E+00
  0.8500000      0.0000000E+00
  0.8600000      0.0000000E+00
  0.8700000      0.0000000E+00
  0.8800000      0.0000000E+00
  0.8900000      0.0000000E+00
  0.9000000      0.0000000E+00
  0.9100000      0.0000000E+00
  0.9200000      0.0000000E+00
  0.9300000      0.0000000E+00
  0.9400000      0.0000000E+00
  0.9500000      0.0000000E+00
  0.9600000      0.0000000E+00
  0.9700000      0.0000000E+00
  0.9800000      0.0000000E+00
  0.9900000      0.0000000E+00
   1.000000      0.0000000E+00
   1.010000      0.0000000E+00
   1.020000      0.0000000E+00
   1.030000      0.0000000E+00
   1.040000      0.0000000E+00
   1.050000      0.0000000E+00
   1.060000      0.0000000E+00
   1.070000      0.0000000E+00
   1.080000      0.0000000E+00
   1.090000      0.0000000E+00
   1.100000      0.0000000E+00
   1.110000      0.0000000E+00
   1.120000      0.0000000E+00
   1.130000      0.0000000E+00
   1.140000      0.0000000E+00
   1.150000      0.0000000E+00
   1.160000      0.0000000E+00
   1.170000      0.0000000E+00
   1.180000      0.0000000E+00
   1.190000      0.0000000E+00
   1.200000      0.0000000E+00
   1.210000      0.0000000E+00
   1.220000      0.0000000E+00
   1.230000      0.0000000E+00
   1.240000      0.0000000E+00
   1.250000      0.0000000E+00
   1.260000      0.0000000E+00
   1.270000      0.0000000E+00
   1.280000      0.0000000E+00
   1.290000      0.0000000E+00
   1.300000      0.0000000E+00
   1.310000      0.0000000E+00
   1.320000      0.0000000E+00
   1.330000      0.0000000E+00
   1.340000      0.0000000E+00
   1.350000      0.0000000E+00
   1.360000      0.0000000E+00
   1.370000      0.0000000E+00
   1.380000      0.0000000E+00
   1.390000      0.0000000E+00
   1.400000      0.0000000E+00
   1.410000      0.0000000E+00
   1.420000      0.0000000E+00
   1.430000      0.0000000E+00
   1.440000      0.0000000E+00
   1.450000      0.0000000E+00
   1.460000      0.0000000E+00
   1.470000      0.0000000E+00
   1.480000      0.0000000E+00
   1.490000      0.0000000E+00
   1.500000      0.0000000E+00
   1.510000      0.0000000E+00
   1.520000      0.0000000E+00
   1.530000      0.0000000E+00
   1.540000      0.0000000E+00
   1.550000      0.0000000E+00
   1.560000      0.0000000E+00
   1.570000      0.0000000E+00
   1.580000      0.0000000E+00
   1.590000      0.0000000E+00
   1.600000      0.0000000E+00
   1.610000      0.0000000E+00
   1.620000      0.0000000E+00
   1.630000      0.0000000E+00
   1.640000      0.0000000E+00
   1.650000      0.0000000E+00
   1.660000      0.0000000E+00
   1.670000      0.0000000E+00
   1.680000      0.0000000E+00
   1.690000      0.0000000E+00
   1.700000      0.0000000E+00
   1.710000      0.0000000E+00
   1.720000      0.0000000E+00
   1.730000      0.0000000E+00
   1.740000      0.0000000E+00
   1.750000      0.0000000E+00
   1.760000      0.0000000E+00
   1.770000      0.0000000E+00
   1.780000      0.0000000E+00
   1.790000      0.0000000E+00
   1.800000      0.0000000E+00
   1.810000      0.0000000E+00
   1.820000      0.0000000E+00
   1.830000      0.0000000E+00
   1.840000      0.0000000E+00
   1.850000      0.0000000E+00
   1.860000      0.0000000E+00
   1.870000      0.0000000E+00
   1.880000      0.0000000E+00
   1.890000      0.0000000E+00
   1.900000      0.0000000E+00
   1.910000      0.0000000E+00
   1.920000      0.0000000E+00
   1.930000      0.0000000E+00
   1.940000      0.0000000E+00
   1.950000      0.0000000E+00
   1.960000      0.0000000E+00
   1.970000      0.0000000E+00
   1.980000      0.0000000E+00
   1.990000      0.0000000E+00
   2.000000      0.0000000E+00
   2.010000      0.0000000E+00
   2.020000      0.0000000E+00
   2.030000      0.0000000E+00
   2.040000      0.0000000E+00
   2.050000      0.0000000E+00
   2.060000      0.0000000E+00
   2.070000      0.0000000E+00
   2.080000      0.0000000E+00
   2.090000      0.0000000E+00
   2.100000      0.0000000E+00
   2.110000      0.0000000E+00
   2.120000      0.0000000E+00
   2.130000      0.0000000E+00
   2.140000      0.0000000E+00
   2.150000      0.0000000E+00
   2.160000      0.0000000E+00
   2.170000      0.0000000E+00
   2.180000      0.0000000E+00
   2.190000      0.0000000E+00
   2.200000      0.0000000E+00
   2.210000      0.0000000E+00
   2.220000      0.0000000E+00
   2.230000      0.0000000E+00
   2.240000      0.0000000E+00
   2.250000      0.0000000E+00
   2.260000      0.0000000E+00
   2.270000      0.0000000E+00
   2.280000      0.0000000E+00
   2.290000      0.0000000E+00
   2.300000      0.0000000E+00
   2.310000      0.0000000E+00
   2.320000      0.0000000E+00
   2.330000      0.0000000E+00
   2.340000      0.0000000E+00
   2.350000      0.0000000E+00
   2.360000      0.0000000E+00
   2.370000      0.0000000E+00
   2.380000      0.0000000E+00
   2.390000      0.0000000E+00
   2.400000      0.0000000E+00
   2.410000      0.0000000E+00
   2.420000      0.0000000E+00
   2.430000      0.0000000E+00
   2.440000      0.0000000E+00
   2.450000      0.0000000E+00
   2.460000      0.0000000E+00
   2.470000      0.0000000E+00
   2.480000      0.0000000E+00
   2.490000      0.0000000E+00
   2.500000      0.0000000E+00
   2.510000      0.0000000E+00
   2.520000      0.0000000E+00
   2.530000      0.0000000E+00
   2.540000      0.0000000E+00
   2.550000      0.0000000E+00
   2.560000      0.0000000E+00
   2.570000      0.0000000E+00
   2.580000      0.0000000E+00
   2.590000      0.0000000E+00
   2.600000      0.0000000E+00
   2.610000      0.0000000E+00
   2.620000      0.0000000E+00
   2.630000      0.0000000E+00
   2.640000      0.0000000E+00
   2.650000      0.0000000E+00
   2.660000      0.0000000E+00
   2.670000      0.0000000E+00
   2.680000      0.0000000E+00
   2.690000      0.0000000E+00
   2.700000      0.0000000E+00
   2.710000      0.0000000E+00
   2.720000      1.3764689E-38
   2.730000      1.6230518E-38
   2.740000      1.9818131E-38
   2.750000      2.4387212E-38
   2.760000      2.9269078E-38
   2.770000      3.4420038E-38
   2.780000      3.9529553E-38
   2.790000      4.3541914E-38
   2.800000      4.7004517E-38
   2.810000      5.2490673E-38
   2.820000      6.0101024E-38
   2.830000      6.8556964E-38
   2.840000      7.9090490E-38
   2.850000      9.2592343E-38
   2.860000      1.0856348E-37
   2.870000      1.2555054E-37
   2.880000      1.3987455E-37
   2.890000      1.5165232E-37
   2.900000      1.6433336E-37
   2.910000      1.7550604E-37
   2.920000      1.8451274E-37
   2.930000      1.9792803E-37
   2.940000      2.1553789E-37
   2.950000      2.3987086E-37
   2.960000      2.7380298E-37
   2.970000      3.1124328E-37
   2.980000      3.3795330E-37
   2.990000      3.5485729E-37
   3.000000      3.7629173E-37
   3.010000      4.0207553E-37
   3.020000      4.3063005E-37
   3.030000      4.6047098E-37
   3.040000      4.8911576E-37
   3.050000      5.1479872E-37
   3.060000      5.3833986E-37
   3.070000      5.5831457E-37
   3.080000      5.7261095E-37
   3.090000      5.8304581E-37
   3.100000      5.6957666E-37
   3.110000      5.3134866E-37
   3.120000      4.9470616E-37
   3.130000      4.6206752E-37
   3.140000      4.2824641E-37
   3.150000      3.9573355E-37
   3.160000      3.6310607E-37
   3.170000      3.2102947E-37
   3.180000      2.7015434E-37
   3.190000      2.0893497E-37
   3.200000      1.3831582E-37
   3.210000      5.8700802E-38
   3.220000     -3.5122621E-38
   3.230000     -1.4535362E-37
   3.240000     -2.7090155E-37
   3.250000     -4.0923978E-37
   3.260000     -5.6225753E-37
   3.270000     -7.2692279E-37
   3.280000     -9.0552149E-37
   3.290000     -1.1030172E-36
   3.300000     -1.3175057E-36
   3.310000     -1.5510260E-36
   3.320000     -1.8068067E-36
   3.330000     -2.0832992E-36
   3.340000     -2.3754451E-36
   3.350000     -2.6533006E-36
   3.360000     -2.9109253E-36
   3.370000     -3.1819080E-36
   3.380000     -3.4660786E-36
   3.390000     -3.7810643E-36
   3.400000     -4.1350636E-36
   3.410000     -4.4956869E-36
   3.420000     -4.8493540E-36
   3.430000     -5.1812694E-36
   3.440000     -5.4965969E-36
   3.450000     -5.8084542E-36
   3.460000     -6.0564139E-36
   3.470000     -6.1837934E-36
   3.480000     -6.2637240E-36
   3.490000     -6.3431997E-36
   3.500000     -6.3996111E-36
   3.510000     -6.4458926E-36
   3.520000     -6.4797935E-36
   3.530000     -6.4944908E-36
   3.540000     -6.5042741E-36
   3.550000     -6.4648042E-36
   3.560000     -6.3088977E-36
   3.570000     -6.0288963E-36
   3.580000     -5.6632077E-36
   3.590000     -5.2909636E-36
   3.600000     -4.8594025E-36
   3.610000     -4.3170425E-36
   3.620000     -3.7123391E-36
   3.630000     -2.9844667E-36
   3.640000     -2.1216525E-36
   3.650000     -9.7625222E-37
   3.660000      3.9635075E-37
   3.670000      1.7740247E-36
   3.680000      3.3903089E-36
   3.690000      5.2765659E-36
   3.700000      7.1863407E-36
   3.710000      8.9613257E-36
   3.720000      1.0689657E-35
   3.730000      1.2471661E-35
   3.740000      1.4220355E-35
   3.750000      1.5916258E-35
   3.760000      1.7582936E-35
   3.770000      1.9359907E-35
   3.780000      2.1095451E-35
   3.790000      2.2545571E-35
   3.800000      2.3789938E-35
   3.810000      2.4958911E-35
   3.820000      2.6254325E-35
   3.830000      2.7819624E-35
   3.840000      2.9523304E-35
   3.850000      3.1760959E-35
   3.860000      3.4309606E-35
   3.870000      3.6536158E-35
   3.880000      3.8722153E-35
   3.890000      4.0942549E-35
   3.900000      4.3046884E-35
   3.910000      4.5058871E-35
   3.920000      4.6955750E-35
   3.930000      4.8793542E-35
   3.940000      5.0444090E-35
   3.950000      5.1663918E-35
   3.960000      5.2361300E-35
   3.970000      5.2180785E-35
   3.980000      5.1232572E-35
   3.990000      4.9797155E-35
   4.000000      4.7287529E-35
   4.010000      4.3457774E-35
   4.020000      3.8616350E-35
   4.030000      3.3154365E-35
   4.040000      2.7216847E-35
   4.050000      2.0350175E-35
   4.060000      1.2124844E-35
   4.070000      2.5958587E-36
   4.080000     -8.0833317E-36
   4.090000     -1.9988574E-35
   4.100000     -3.3001014E-35
   4.110000     -4.6870180E-35
   4.120000     -6.1498524E-35
   4.130000     -7.6420627E-35
   4.140000     -9.1958613E-35
   4.150000     -1.0848753E-34
   4.160000     -1.2581080E-34
   4.170000     -1.4419898E-34
   4.180000     -1.6394232E-34
   4.190000     -1.8479351E-34
   4.200000     -2.0605844E-34
   4.210000     -2.2784540E-34
   4.220000     -2.4804774E-34
   4.230000     -2.6667467E-34
   4.240000     -2.8595223E-34
   4.250000     -3.0572076E-34
   4.260000     -3.2568889E-34
   4.270000     -3.4427867E-34
   4.280000     -3.6116302E-34
   4.290000     -3.7727448E-34
   4.300000     -3.9297851E-34
   4.310000     -4.0829901E-34
   4.320000     -4.2224905E-34
   4.330000     -4.3406855E-34
   4.340000     -4.4431391E-34
   4.350000     -4.5265399E-34
   4.360000     -4.5767781E-34
   4.370000     -4.5953821E-34
   4.380000     -4.5926978E-34
   4.390000     -4.5651508E-34
   4.400000     -4.5045118E-34
   4.410000     -4.4094015E-34
   4.420000     -4.2770702E-34
   4.430000     -4.0998148E-34
   4.440000     -3.8742177E-34
   4.450000     -3.6122824E-34
   4.460000     -3.3098838E-34
   4.470000     -2.9608946E-34
   4.480000     -2.5476503E-34
   4.490000     -2.0625839E-34
   4.500000     -1.5175652E-34
   4.510000     -9.3555288E-35
   4.520000     -3.0713627E-35
   4.530000      4.1710790E-35
   4.540000      1.2404987E-34
   4.550000      2.1233101E-34
   4.560000      3.0646449E-34
   4.570000      4.0995228E-34
   4.580000      5.2351160E-34
   4.590000      6.4814775E-34
   4.600000      7.8512829E-34
   4.610000      9.2975303E-34
   4.620000      1.0822051E-33
   4.630000      1.2449999E-33
   4.640000      1.4120072E-33
   4.650000      1.5822114E-33
   4.660000      1.7565945E-33
   4.670000      1.9343224E-33
   4.680000      2.1149026E-33
   4.690000      2.2982577E-33
   4.700000      2.4835824E-33
   4.710000      2.6681327E-33
   4.720000      2.8530177E-33
   4.730000      3.0376550E-33
   4.740000      3.2184352E-33
   4.750000      3.3924018E-33
   4.760000      3.5567583E-33
   4.770000      3.7112866E-33
   4.780000      3.8526460E-33
   4.790000      3.9777572E-33
   4.800000      4.0881442E-33
   4.810000      4.1850100E-33
   4.820000      4.2665251E-33
   4.830000      4.3266821E-33
   4.840000      4.3640441E-33
   4.850000      4.3792429E-33
   4.860000      4.3670489E-33
   4.870000      4.3255768E-33
   4.880000      4.2572431E-33
   4.890000      4.1561013E-33
   4.900000      4.0181641E-33
   4.910000      3.8429548E-33
   4.920000      3.6250064E-33
   4.930000      3.3620479E-33
   4.940000      3.0500589E-33
   4.950000      2.6821424E-33
   4.960000      2.2597072E-33
   4.970000      1.7820766E-33
   4.980000      1.2407962E-33
   4.990000      6.3354085E-34
   5.000000     -3.7735570E-35
   5.010000     -7.7373812E-34
   5.020000     -1.5785666E-33
   5.030000     -2.4543020E-33
   5.040000     -3.4001780E-33
   5.050000     -4.4161732E-33
   5.060000     -5.5031955E-33
   5.070000     -6.6614222E-33
   5.080000     -7.8901884E-33
   5.090000     -9.1897114E-33
   5.100000     -1.0557120E-32
   5.110000     -1.1990424E-32
   5.120000     -1.3486588E-32
   5.130000     -1.5037272E-32
   5.140000     -1.6638078E-32
   5.150000     -1.8290610E-32
   5.160000     -1.9988556E-32
   5.170000     -2.1724333E-32
   5.180000     -2.3493819E-32
   5.190000     -2.5287617E-32
   5.200000     -2.7095198E-32
   5.210000     -2.8906934E-32
   5.220000     -3.0713798E-32
   5.230000     -3.2504379E-32
   5.240000     -3.4265525E-32
   5.250000     -3.5985626E-32
   5.260000     -3.7650837E-32
   5.270000     -3.9244408E-32
   5.280000     -4.0750240E-32
   5.290000     -4.2151779E-32
   5.300000     -4.3430808E-32
   5.310000     -4.4567364E-32
   5.320000     -4.5541249E-32
   5.330000     -4.6330740E-32
   5.340000     -4.6914926E-32
   5.350000     -4.7269267E-32
   5.360000     -4.7369963E-32
   5.370000     -4.7190811E-32
   5.380000     -4.6704583E-32
   5.390000     -4.5889316E-32
   5.400000     -4.4715499E-32
   5.410000     -4.3154205E-32
   5.420000     -4.1179501E-32
   5.430000     -3.8762820E-32
   5.440000     -3.5876561E-32
   5.450000     -3.2493206E-32
   5.460000     -2.8585190E-32
   5.470000     -2.4125589E-32
   5.480000     -1.9088341E-32
   5.490000     -1.3447636E-32
   5.500000     -7.1794383E-33
   5.510000     -2.6113453E-34
   5.520000      7.3291030E-33
   5.530000      1.5610296E-32
   5.540000      2.4601273E-32
   5.550000      3.4318052E-32
   5.560000      4.4773028E-32
   5.570000      5.5976700E-32
   5.580000      6.7935803E-32
   5.590000      8.0653912E-32
   5.600000      9.4130872E-32
   5.610000      1.0836228E-31
   5.620000      1.2334000E-31
   5.630000      1.3905051E-31
   5.640000      1.5547584E-31
   5.650000      1.7259071E-31
   5.660000      1.9036509E-31
   5.670000      2.0876490E-31
   5.680000      2.2774580E-31
   5.690000      2.4726009E-31
   5.700000      2.6725212E-31
   5.710000      2.8765710E-31
   5.720000      3.0840239E-31
   5.730000      3.2940866E-31
   5.740000      3.5058851E-31
   5.750000      3.7184281E-31
   5.760000      3.9306472E-31
   5.770000      4.1413776E-31
   5.780000      4.3493592E-31
   5.790000      4.5532303E-31
   5.800000      4.7515306E-31
   5.810000      4.9426975E-31
   5.820000      5.1250665E-31
   5.830000      5.2968688E-31
   5.840000      5.4562296E-31
   5.850000      5.6011746E-31
   5.860000      5.7296270E-31
   5.870000      5.8394111E-31
   5.880000      5.9282531E-31
   5.890000      5.9937836E-31
   5.900000      6.0335417E-31
   5.910000      6.0449825E-31
   5.920000      6.0254787E-31
   5.930000      5.9723299E-31
   5.940000      5.8827643E-31
   5.950000      5.7539489E-31
   5.960000      5.5830038E-31
   5.970000      5.3670063E-31
   5.980000      5.1030015E-31
   5.990000      4.7880161E-31
   6.000000      4.4190698E-31
   6.010000      3.9931919E-31
   6.020000      3.5074321E-31
   6.030000      2.9588791E-31
   6.040000      2.3446782E-31
   6.050000      1.6620485E-31
   6.060000      9.0830219E-32
   6.070000      8.0865342E-33
   6.080000     -8.2270052E-32
   6.090000     -1.8046761E-31
   6.100000     -2.8671579E-31
   6.110000     -4.0120351E-31
   6.120000     -5.2409627E-31
   6.130000     -6.5553337E-31
   6.140000     -7.9562498E-31
   6.150000     -9.4444934E-31
   6.160000     -1.1020493E-30
   6.170000     -1.2684296E-30
   6.180000     -1.4435531E-30
   6.190000     -1.6273380E-30
   6.200000     -1.8196540E-30
   6.210000     -2.0203186E-30
   6.220000     -2.2290945E-30
   6.230000     -2.4456846E-30
   6.240000     -2.6697303E-30
   6.250000     -2.9008058E-30
   6.260000     -3.1384161E-30
   6.270000     -3.3819928E-30
   6.280000     -3.6308903E-30
   6.290000     -3.8843837E-30
   6.300000     -4.1416634E-30
   6.310000     -4.4018336E-30
   6.320000     -4.6639094E-30
   6.330000     -4.9268120E-30
   6.340000     -5.1893675E-30
   6.350000     -5.4503046E-30
   6.360000     -5.7082513E-30
   6.370000     -5.9617327E-30
   6.380000     -6.2091714E-30
   6.390000     -6.4488846E-30
   6.400000     -6.6790822E-30
   6.410000     -6.8978686E-30
   6.420000     -7.1032396E-30
   6.430000     -7.2930859E-30
   6.440000     -7.4651911E-30
   6.450000     -7.6172335E-30
   6.460000     -7.7467906E-30
   6.470000     -7.8513363E-30
   6.480000     -7.9282501E-30
   6.490000     -7.9748155E-30
   6.500000     -7.9882263E-30
   6.510000     -7.9655928E-30
   6.520000     -7.9039473E-30
   6.530000     -7.8002495E-30
   6.540000     -7.6513947E-30
   6.550000     -7.4542238E-30
   6.560000     -7.2055298E-30
   6.570000     -6.9020725E-30
   6.580000     -6.5405845E-30
   6.590000     -6.1177894E-30
   6.600000     -5.6304103E-30
   6.610000     -5.0751891E-30
   6.620000     -4.4488982E-30
   6.630000     -3.7483592E-30
   6.640000     -2.9704633E-30
   6.650000     -2.1121852E-30
   6.660000     -1.1706071E-30
   6.670000     -1.4294159E-31
   6.680000      9.7345048E-31
   6.690000      2.1810333E-30
   6.700000      3.4820697E-30
   6.710000      4.8785976E-30
   6.720000      6.3724019E-30
   6.730000      7.9649872E-30
   6.740000      9.6575464E-30
   6.750000      1.1450935E-29
   6.760000      1.3345634E-29
   6.770000      1.5341725E-29
   6.780000      1.7438852E-29
   6.790000      1.9636190E-29
   6.800000      2.1932416E-29
   6.810000      2.4325663E-29
   6.820000      2.6813495E-29
   6.830000      2.9392872E-29
   6.840000      3.2060113E-29
   6.850000      3.4810853E-29
   6.860000      3.7640017E-29
   6.870000      4.0541788E-29
   6.880000      4.3509556E-29
   6.890000      4.6535899E-29
   6.900000      4.9612548E-29
   6.910000      5.2730349E-29
   6.920000      5.5879226E-29
   6.930000      5.9048170E-29
   6.940000      6.2225196E-29
   6.950000      6.5397323E-29
   6.960000      6.8550539E-29
   6.970000      7.1669806E-29
   6.980000      7.4738998E-29
   6.990000      7.7740933E-29
   7.000000      8.0657326E-29
   7.010000      8.3468787E-29
   7.020000      8.6154821E-29
   7.030000      8.8693841E-29
   7.040000      9.1063138E-29
   7.050000      9.3238927E-29
   7.060000      9.5196316E-29