  -2.600000      0.0000000E+00
  -2.590000      0.0000000E+00
  -2.580000      0.0000000E+00
  -2.570000      0.0000000E+00
  -2.560000      0.0000000E+00
  -2.550000      0.0000000E+00
  -2.540000      0.0000000E+00
  -2.530000      0.0000000E+00
  -2.520000      0.0000000E+00
  -2.510000      0.0000000E+00
  -2.500000      0.0000000E+00
  -2.490000      0.0000000E+00
  -2.480000      0.0000000E+00
  -2.470000      0.0000000E+00
  -2.460000      0.0000000E+00
  -2.450000      0.0000000E+00
  -2.440000      0.0000000E+00
  -2.430000      0.0000000E+00
  -2.420000      0.0000000E+00
  -2.410000      0.0000000E+00
  -2.400000      0.0000000E+00
  -2.390000      0.0000000E+00
  -2.380000      0.0000000E+00
  -2.370000      0.0000000E+00
  -2.360000      0.0000000E+00
  -2.350000      0.0000000E+00
  -2.340000      0.0000000E+00
  -2.330000      0.0000000E+00
  -2.320000      0.0000000E+00
  -2.310000      0.0000000E+00
  -2.300000      0.0000000E+00
  -2.290000      0.0000000E+00
  -2.280000      0.0000000E+00
  -2.270000      0.0000000E+00
  -2.260000      0.0000000E+00
  -2.250000      0.0000000E+00
  -2.240000      0.0000000E+00
  -2.230000      0.0000000E+00
  -2.220000      0.0000000E+00
  -2.210000      0.0000000E+00
  -2.200000      0.0000000E+00
  -2.190000      0.0000000E+00
  -2.180000      0.0000000E+00
  -2.170000      0.0000000E+00
  -2.160000      0.0000000E+00
  -2.150000      0.0000000E+00
  -2.140000      0.0000000E+00
  -2.130000      0.0000000E+00
  -2.120000      0.0000000E+00
  -2.110000      0.0000000E+00
  -2.100000      0.0000000E+00
  -2.090000      0.0000000E+00
  -2.080000      0.0000000E+00
  -2.070000      0.0000000E+00
  -2.060000      0.0000000E+00
  -2.050000      0.0000000E+00
  -2.040000      0.0000000E+00
  -2.030000      0.0000000E+00
  -2.020000      0.0000000E+00
  -2.010000      0.0000000E+00
  -2.000000      0.0000000E+00
  -1.990000      0.0000000E+00
  -1.980000      0.0000000E+00
  -1.970000      0.0000000E+00
  -1.960000      0.0000000E+00
  -1.950000      0.0000000E+00
  -1.940000      0.0000000E+00
  -1.930000      0.0000000E+00
  -1.920000      0.0000000E+00
  -1.910000      0.0000000E+00
  -1.900000      0.0000000E+00
  -1.890000      0.0000000E+00
  -1.880000      0.0000000E+00
  -1.870000      0.0000000E+00
  -1.860000      0.0000000E+00
  -1.850000      0.0000000E+00
  -1.840000      0.0000000E+00
  -1.830000      0.0000000E+00
  -1.820000      0.0000000E+00
  -1.810000      0.0000000E+00
  -1.800000      0.0000000E+00
  -1.790000      0.0000000E+00
  -1.780000      0.0000000E+00
  -1.770000      0.0000000E+00
  -1.760000      0.0000000E+00
  -1.750000      0.0000000E+00
  -1.740000      0.0000000E+00
  -1.730000      0.0000000E+00
  -1.720000      0.0000000E+00
  -1.710000      0.0000000E+00
  -1.700000      0.0000000E+00
  -1.690000      0.0000000E+00
  -1.680000      0.0000000E+00
  -1.670000      0.0000000E+00
  -1.660000      0.0000000E+00
  -1.650000      0.0000000E+00
  -1.640000      0.0000000E+00
  -1.630000      0.0000000E+00
  -1.620000      0.0000000E+00
  -1.610000      0.0000000E+00
  -1.600000      0.0000000E+00
  -1.590000      0.0000000E+00
  -1.580000      0.0000000E+00
  -1.570000      0.0000000E+00
  -1.560000      0.0000000E+00
  -1.550000      0.0000000E+00
  -1.540000      0.0000000E+00
  -1.530000      0.0000000E+00
  -1.520000      0.0000000E+00
  -1.510000      0.0000000E+00
  -1.500000      0.0000000E+00
  -1.490000      0.0000000E+00
  -1.480000      0.0000000E+00
  -1.470000      0.0000000E+00
  -1.460000      0.0000000E+00
  -1.450000      0.0000000E+00
  -1.440000      0.0000000E+00
  -1.430000      0.0000000E+00
  -1.420000      0.0000000E+00
  -1.410000      0.0000000E+00
  -1.400000      0.0000000E+00
  -1.390000      0.0000000E+00
  -1.380000      0.0000000E+00
  -1.370000      0.0000000E+00
  -1.360000      0.0000000E+00
  -1.350000      0.0000000E+00
  -1.340000      0.0000000E+00
  -1.330000      0.0000000E+00
  -1.320000      0.0000000E+00
  -1.310000      0.0000000E+00
  -1.300000      0.0000000E+00
  -1.290000      0.0000000E+00
  -1.280000      0.0000000E+00
  -1.270000      0.0000000E+00
  -1.260000      0.0000000E+00
  -1.250000      0.0000000E+00
  -1.240000      0.0000000E+00
  -1.230000      0.0000000E+00
  -1.220000      0.0000000E+00
  -1.210000      0.0000000E+00
  -1.200000      0.0000000E+00
  -1.190000      0.0000000E+00
  -1.180000      0.0000000E+00
  -1.170000      0.0000000E+00
  -1.160000      0.0000000E+00
  -1.150000      0.0000000E+00
  -1.140000      0.0000000E+00
  -1.130000      0.0000000E+00
  -1.120000      0.0000000E+00
  -1.110000      0.0000000E+00
  -1.100000      0.0000000E+00
  -1.090000      0.0000000E+00
  -1.080000      0.0000000E+00
  -1.070000      0.0000000E+00
  -1.060000      0.0000000E+00
  -1.050000      0.0000000E+00
  -1.040000      0.0000000E+00
  -1.030000      0.0000000E+00
  -1.020000      0.0000000E+00
  -1.010000      0.0000000E+00
  -1.000000      0.0000000E+00
 -0.9900000      0.0000000E+00
 -0.9800000      0.0000000E+00
 -0.9700000      0.0000000E+00
 -0.9600000      0.0000000E+00
 -0.9500000      0.0000000E+00
 -0.9400000      0.0000000E+00
 -0.9300000      0.0000000E+00
 -0.9200000      0.0000000E+00
 -0.9100000      0.0000000E+00
 -0.9000000      0.0000000E+00
 -0.8900000      0.0000000E+00
 -0.8800000      0.0000000E+00
 -0.8700000      0.0000000E+00
 -0.8600000      0.0000000E+00
 -0.8500000      0.0000000E+00
 -0.8400000      0.0000000E+00
 -0.8300000      0.0000000E+00
 -0.8200000      0.0000000E+00
 -0.8100000      0.0000000E+00
 -0.8000000      0.0000000E+00
 -0.7900000      0.0000000E+00
 -0.7800000      0.0000000E+00
 -0.7700000      0.0000000E+00
 -0.7600000      0.0000000E+00
 -0.7500000      0.0000000E+00
 -0.7400000      0.0000000E+00
 -0.7300000      0.0000000E+00
 -0.7200000      0.0000000E+00
 -0.7100000      0.0000000E+00
 -0.7000000      0.0000000E+00
 -0.6900000      0.0000000E+00
 -0.6800000      0.0000000E+00
 -0.6700000      0.0000000E+00
 -0.6600000      0.0000000E+00
 -0.6500000      0.0000000E+00
 -0.6400000      0.0000000E+00
 -0.6300000      0.0000000E+00
 -0.6200000      0.0000000E+00
 -0.6100000      0.0000000E+00
 -0.6000000      0.0000000E+00
 -0.5900000      0.0000000E+00
 -0.5800000      0.0000000E+00
 -0.5700000      0.0000000E+00
 -0.5600000      0.0000000E+00
 -0.5500000      0.0000000E+00
 -0.5400000      0.0000000E+00
 -0.5300000      0.0000000E+00
 -0.5200000      0.0000000E+00
 -0.5100000      0.0000000E+00
 -0.5000000      0.0000000E+00
 -0.4900000      0.0000000E+00
 -0.4800000      0.0000000E+00
 -0.4700000      0.0000000E+00
 -0.4600000      0.0000000E+00
 -0.4500000      0.0000000E+00
 -0.4400000      0.0000000E+00
 -0.4300000      0.0000000E+00
 -0.4200000      0.0000000E+00
 -0.4100000      0.0000000E+00
 -0.4000000      0.0000000E+00
 -0.3900000      0.0000000E+00
 -0.3800000      0.0000000E+00
 -0.3700000      0.0000000E+00
 -0.3600000      0.0000000E+00
 -0.3500000      0.0000000E+00
 -0.3400000      0.0000000E+00
 -0.3300000      0.0000000E+00
 -0.3200000      0.0000000E+00
 -0.3100000      0.0000000E+00
 -0.3000000      0.0000000E+00
 -0.2900000      0.0000000E+00
 -0.2800000      0.0000000E+00
 -0.2700000      0.0000000E+00
 -0.2600000      0.0000000E+00
 -0.2500000      0.0000000E+00
 -0.2400000      0.0000000E+00
 -0.2300000      0.0000000E+00
 -0.2200000      0.0000000E+00
 -0.2100000      0.0000000E+00
 -0.2000000      0.0000000E+00
 -0.1900000      0.0000000E+00
 -0.1800000      0.0000000E+00
 -0.1700000      0.0000000E+00
 -0.1600000      0.0000000E+00
 -0.1500000      0.0000000E+00
 -0.1400000      0.0000000E+00
 -0.1300000      0.0000000E+00
 -0.1200000      0.0000000E+00
 -0.1100000      0.0000000E+00
 -0.1000000      0.0000000E+00
 -9.0000004E-02  0.0000000E+00
 -7.9999998E-02  0.0000000E+00
 -7.0000000E-02  0.0000000E+00
 -5.9999999E-02  0.0000000E+00
 -5.0000001E-02  0.0000000E+00
 -3.9999999E-02  0.0000000E+00
 -2.9999999E-02  0.0000000E+00
 -2.0000000E-02  0.0000000E+00
 -9.9999998E-03  0.0000000E+00
 -3.4694470E-17  0.0000000E+00
  9.9999998E-03  0.0000000E+00
  2.0000000E-02  0.0000000E+00
  2.9999999E-02  0.0000000E+00
  3.9999999E-02  0.0000000E+00
  5.0000001E-02  0.0000000E+00
  5.9999999E-02  0.0000000E+00
  7.0000000E-02  0.0000000E+00
  7.9999998E-02  0.0000000E+00
  9.0000004E-02  0.0000000E+00
  0.1000000      0.0000000E+00
  0.1100000      0.0000000E+00
  0.1200000      0.0000000E+00
  0.1300000      0.0000000E+00
  0.1400000      0.0000000E+00
  0.1500000      0.0000000E+00
  0.1600000      0.0000000E+00
  0.1700000      0.0000000E+00
  0.1800000      0.0000000E+00
  0.1900000      0.0000000E+00
  0.2000000      0.0000000E+00
  0.2100000      0.0000000E+00
  0.2200000      0.0000000E+00
  0.2300000      0.0000000E+00
  0.2400000      0.0000000E+00
  0.2500000      0.0000000E+00
  0.2600000      0.0000000E+00
  0.2700000      0.0000000E+00
  0.2800000      0.0000000E+00
  0.2900000      0.0000000E+00
  0.3000000      0.0000000E+00
  0.3100000      0.0000000E+00
  0.3200000      0.0000000E+00
  0.3300000      0.0000000E+00
  0.3400000      0.0000000E+00
  0.3500000      0.0000000E+00
  0.3600000      0.0000000E+00
  0.3700000      0.0000000E+00
  0.3800000      0.0000000E+00
  0.3900000      0.0000000E+00
  0.4000000      0.0000000E+00
  0.4100000      0.0000000E+00
  0.4200000      0.0000000E+00
  0.4300000      0.0000000E+00
  0.4400000      0.0000000E+00
  0.4500000      0.0000000E+00
  0.4600000      0.0000000E+00
  0.4700000      0.0000000E+00
  0.4800000      0.0000000E+00
  0.4900000      0.0000000E+00
  0.5000000      0.0000000E+00
  0.5100000      0.0000000E+00
  0.5200000      0.0000000E+00
  0.5300000      0.0000000E+00
  0.5400000      0.0000000E+00
  0.5500000      0.0000000E+00
  0.5600000      0.0000000E+00
  0.5700000      0.0000000E+00
  0.5800000      0.0000000E+00
  0.5900000      0.0000000E+00
  0.6000000      0.0000000E+00
  0.6100000      0.0000000E+00
  0.6200000      0.0000000E+00
  0.6300000      0.0000000E+00
  0.6400000      0.0000000E+00
  0.6500000      0.0000000E+00
  0.6600000      0.0000000E+00
  0.6700000      0.0000000E+00
  0.6800000      0.0000000E+00
  0.6900000     -1.2855813E-38
  0.7000000     -1.4630606E-38
  0.7100000     -1.4927918E-38
  0.7200000     -1.2503753E-38
  0.7300000      0.0000000E+00
  0.7400000      0.0000000E+00
  0.7500000      0.0000000E+00
  0.7600000      0.0000000E+00
  0.7700000      1.3466602E-38
  0.7800000      1.8801753E-38
  0.7900000      2.2848281E-38
  0.8000000      2.6092979E-38
  0.8100000      2.9005314E-38
  0.8200000      3.0439826E-38
  0.8300000      3.1088426E-38
  0.8400000      3.2312354E-38
  0.8500000      3.2946881E-38
  0.8600000      3.3071667E-38
  0.8700000      3.5184410E-38
  0.8800000      3.9530890E-38
  0.8900000      4.1857458E-38
  0.9000000      3.7232495E-38
  0.9100000      2.9747717E-38
  0.9200000      2.3173893E-38
  0.9300000      1.5111390E-38
  0.9400000      0.0000000E+00
  0.9500000      0.0000000E+00
  0.9600000      1.3643443E-38
  0.9700000      2.3840512E-38
  0.9800000      3.8063338E-38
  0.9900000      5.3630265E-38
   1.000000      6.7537188E-38
   1.010000      8.1914718E-38
   1.020000      7.1208024E-38
   1.030000      3.2316571E-38
   1.040000      0.0000000E+00
   1.050000     -5.7473685E-38
   1.060000     -1.1098573E-37
   1.070000     -1.7061275E-37
   1.080000     -2.3209124E-37
   1.090000     -2.9270793E-37
   1.100000     -3.5485395E-37
   1.110000     -4.1964167E-37
   1.120000     -4.8036933E-37
   1.130000     -5.3548000E-37
   1.140000     -5.8976056E-37
   1.150000     -6.4129790E-37
   1.160000     -6.6333151E-37
   1.170000     -7.6300849E-37
   1.180000     -9.7745218E-37
   1.190000     -1.0634357E-36
   1.200000     -1.0772980E-36
   1.210000     -1.1764066E-36
   1.220000     -1.2870394E-36
   1.230000     -1.3735715E-36
   1.240000     -1.4256817E-36
   1.250000     -1.4316013E-36
   1.260000     -1.4151442E-36
   1.270000     -1.3885147E-36
   1.280000     -1.1867648E-36
   1.290000     -7.8288908E-37
   1.300000     -4.1396590E-37
   1.310000     -1.2928315E-37
   1.320000      9.0454180E-38
   1.330000      3.0330325E-37
   1.340000      5.4604458E-37
   1.350000      7.2763156E-37
   1.360000      8.1142194E-37
   1.370000      7.7756935E-37
   1.380000      6.4671063E-37
   1.390000      4.1237806E-37
   1.400000      7.4191366E-38
   1.410000     -1.6947085E-37
   1.420000     -3.3016403E-37
   1.430000     -7.6848768E-37
   1.440000     -1.3865964E-36
   1.450000     -1.9788128E-36
   1.460000     -2.6450207E-36
   1.470000     -3.4681008E-36
   1.480000     -4.3992456E-36
   1.490000     -5.3589596E-36
   1.500000     -6.2902752E-36
   1.510000     -7.2886440E-36
   1.520000     -8.4341074E-36
   1.530000     -9.9284897E-36
   1.540000     -1.2036511E-35
   1.550000     -1.4578777E-35
   1.560000     -1.7455490E-35
   1.570000     -2.0792732E-35
   1.580000     -2.4702951E-35
   1.590000     -2.9140221E-35
   1.600000     -3.4144811E-35
   1.610000     -3.9702247E-35
   1.620000     -4.5575784E-35
   1.630000     -5.1712591E-35
   1.640000     -5.7913123E-35
   1.650000     -6.3991571E-35
   1.660000     -6.9802404E-35
   1.670000     -7.5259074E-35
   1.680000     -8.0380970E-35
   1.690000     -8.5012584E-35
   1.700000     -8.8994577E-35
   1.710000     -9.2028408E-35
   1.720000     -9.4381698E-35
   1.730000     -9.6169988E-35
   1.740000     -9.6546405E-35
   1.750000     -9.5899745E-35
   1.760000     -9.4343340E-35
   1.770000     -9.0492884E-35
   1.780000     -8.4594095E-35
   1.790000     -7.6847582E-35
   1.800000     -6.6313367E-35
   1.810000     -5.2047773E-35
   1.820000     -3.3314184E-35
   1.830000     -9.9747002E-36
   1.840000      1.7370971E-35
   1.850000      4.6992407E-35
   1.860000      8.0513523E-35
   1.870000      1.2273955E-34
   1.880000      1.7409873E-34
   1.890000      2.3373601E-34
   1.900000      3.0004333E-34
   1.910000      3.7013943E-34
   1.920000      4.4794274E-34
   1.930000      5.3322642E-34
   1.940000      6.2050976E-34
   1.950000      7.1043513E-34
   1.960000      7.9842028E-34
   1.970000      8.8332312E-34
   1.980000      9.6981195E-34
   1.990000      1.0546004E-33
   2.000000      1.1399553E-33
   2.010000      1.2225838E-33
   2.020000      1.2968656E-33
   2.030000      1.3646158E-33
   2.040000      1.4238075E-33
   2.050000      1.4746133E-33
   2.060000      1.5156403E-33
   2.070000      1.5490260E-33
   2.080000      1.5782648E-33
   2.090000      1.6008777E-33
   2.100000      1.6120832E-33
   2.110000      1.6110275E-33
   2.120000      1.5974206E-33
   2.130000      1.5666970E-33
   2.140000      1.5172489E-33
   2.150000      1.4477821E-33
   2.160000      1.3552937E-33
   2.170000      1.2373288E-33
   2.180000      1.0911232E-33
   2.190000      9.1420951E-34
   2.200000      7.0391017E-34
   2.210000      4.5762445E-34
   2.220000      1.7348253E-34
   2.230000     -1.5091715E-34
   2.240000     -5.1766820E-34
   2.250000     -9.2517448E-34
   2.260000     -1.3789533E-33
   2.270000     -1.8835796E-33
   2.280000     -2.4337960E-33
   2.290000     -3.0292721E-33
   2.300000     -3.6698496E-33
   2.310000     -4.3518270E-33
   2.320000     -5.0729293E-33
   2.330000     -5.8303675E-33
   2.340000     -6.6198324E-33
   2.350000     -7.4371559E-33
   2.360000     -8.2760401E-33
   2.370000     -9.1313092E-33
   2.380000     -9.9951814E-33
   2.390000     -1.0855715E-32
   2.400000     -1.1705282E-32
   2.410000     -1.2537300E-32
   2.420000     -1.3343282E-32
   2.430000     -1.4109952E-32
   2.440000     -1.4824114E-32
   2.450000     -1.5475792E-32
   2.460000     -1.6052883E-32
   2.470000     -1.6542660E-32
   2.480000     -1.6931519E-32
   2.490000     -1.7205986E-32
   2.500000     -1.7352088E-32
   2.510000     -1.7354127E-32
   2.520000     -1.7199149E-32
   2.530000     -1.6872225E-32
   2.540000     -1.6355762E-32
   2.550000     -1.5635975E-32
   2.560000     -1.4698083E-32
   2.570000     -1.3526265E-32
   2.580000     -1.2105657E-32
   2.590000     -1.0421997E-32
   2.600000     -8.4616506E-33
   2.610000     -6.2121210E-33
   2.620000     -3.6619195E-33
   2.630000     -8.0062819E-34
   2.640000      2.3800221E-33
   2.650000      5.8863838E-33
   2.660000      9.7229627E-33
   2.670000      1.3891513E-32
   2.680000      1.8391962E-32
   2.690000      2.3218835E-32
   2.700000      2.8363486E-32
   2.710000      3.3815740E-32
   2.720000      3.9560298E-32
   2.730000      4.5577096E-32
   2.740000      5.1841523E-32
   2.750000      5.8324744E-32
   2.760000      6.4992695E-32
   2.770000      7.1806283E-32
   2.780000      7.8721669E-32
   2.790000      8.5688918E-32
   2.800000      9.2652894E-32
   2.810000      9.9554156E-32
   2.820000      1.0632780E-31
   2.830000      1.1290402E-31
   2.840000      1.1920820E-31
   2.850000      1.2516115E-31
   2.860000      1.3067933E-31
   2.870000      1.3567511E-31
   2.880000      1.4005706E-31
   2.890000      1.4373044E-31
   2.900000      1.4659746E-31
   2.910000      1.4855719E-31
   2.920000      1.4950704E-31
   2.930000      1.4934265E-31
   2.940000      1.4795793E-31
   2.950000      1.4524644E-31
   2.960000      1.4110179E-31
   2.970000      1.3541832E-31
   2.980000      1.2809073E-31
   2.990000      1.1901879E-31
   3.000000      1.0810575E-31
   3.010000      9.5256743E-32
   3.020000      8.0383901E-32
   3.030000      6.3406154E-32
   3.040000      4.4250624E-32
   3.050000      2.2854089E-32
   3.060000     -8.3569190E-34
   3.070000     -2.6858412E-32
   3.080000     -5.5239724E-32
   3.090000     -8.5989610E-32
   3.100000     -1.1910079E-31
   3.110000     -1.5454725E-31
   3.120000     -1.9228256E-31
   3.130000     -2.3223830E-31
   3.140000     -2.7432262E-31
   3.150000     -3.1841932E-31
   3.160000     -3.6438630E-31
   3.170000     -4.1205398E-31
   3.180000     -4.6122486E-31
   3.190000     -5.1167280E-31
   3.200000     -5.6314201E-31
   3.210000     -6.1534689E-31
   3.220000     -6.6797147E-31
   3.230000     -7.2066958E-31
   3.240000     -7.7306480E-31
   3.250000     -8.2475082E-31
   3.260000     -8.7529181E-31
   3.270000     -9.2422294E-31
   3.280000     -9.7105143E-31
   3.290000     -1.0152576E-30
   3.300000     -1.0562960E-30
   3.310000     -1.0935962E-30
   3.320000     -1.1265655E-30
   3.330000     -1.1545896E-30
   3.340000     -1.1770355E-30
   3.350000     -1.1932534E-30
   3.360000     -1.2025797E-30
   3.370000     -1.2043394E-30
   3.380000     -1.1978497E-30
   3.390000     -1.1824239E-30
   3.400000     -1.1573752E-30
   3.410000     -1.1220211E-30
   3.420000     -1.0756889E-30
   3.430000     -1.0177203E-30
   3.440000     -9.4747816E-31
   3.450000     -8.6435172E-31
   3.460000     -7.6776417E-31
   3.470000     -6.5717939E-31
   3.480000     -5.3210948E-31
   3.490000     -3.9212239E-31
   3.500000     -2.3684989E-31
   3.510000     -6.5995779E-32
   3.520000      1.2065586E-31
   3.530000      3.2323222E-31
   3.540000      5.4176353E-31
   3.550000      7.7617488E-31
   3.560000      1.0262783E-30
   3.570000      1.2917650E-30
   3.580000      1.5721977E-30
   3.590000      1.8670036E-30
   3.600000      2.1754680E-30
   3.610000      2.4967282E-30
   3.620000      2.8297674E-30
   3.630000      3.1734097E-30
   3.640000      3.5263157E-30
   3.650000      3.8869788E-30
   3.660000      4.2537210E-30
   3.670000      4.6246901E-30
   3.680000      4.9978578E-30
   3.690000      5.3710188E-30
   3.700000      5.7417877E-30
   3.710000      6.1076012E-30
   3.720000      6.4657170E-30
   3.730000      6.8132157E-30
   3.740000      7.1470034E-30
   3.750000      7.4638159E-30
   3.760000      7.7602210E-30
   3.770000      8.0326272E-30
   3.780000      8.2772888E-30
   3.790000      8.4903185E-30
   3.800000      8.6676936E-30
   3.810000      8.8052735E-30
   3.820000      8.8988097E-30
   3.830000      8.9439675E-30
   3.840000      8.9363435E-30
   3.850000      8.8714863E-30
   3.860000      8.7449211E-30
   3.870000      8.5521754E-30
   3.880000      8.2888105E-30
   3.890000      7.9504464E-30
   3.900000      7.5328003E-30
   3.910000      7.0317169E-30
   3.920000      6.4432084E-30
   3.930000      5.7634902E-30
   3.940000      4.9890211E-30
   3.950000      4.1165444E-30
   3.960000      3.1431286E-30
   3.970000      2.0662089E-30
   3.980000      8.8363142E-31
   3.990000     -4.0630337E-31
   4.000000     -1.8047987E-30
   4.010000     -3.3125167E-30
   4.020000     -4.9295347E-30
   4.030000     -6.6553045E-30
   4.040000     -8.4886032E-30
   4.050000     -1.0427496E-29
   4.060000     -1.2469290E-29
   4.070000     -1.4610493E-29
   4.080000     -1.6846764E-29
   4.090000     -1.9172885E-29
   4.100000     -2.1582713E-29
   4.110000     -2.4069129E-29
   4.120000     -2.6624019E-29
   4.130000     -2.9238220E-29
   4.140000     -3.1901489E-29
   4.150000     -3.4602476E-29
   4.160000     -3.7328675E-29
   4.170000     -4.0066418E-29
   4.180000     -4.2800835E-29
   4.190000     -4.5515842E-29
   4.200000     -4.8194122E-29
   4.210000     -5.0817124E-29
   4.220000     -5.3365069E-29
   4.230000     -5.5816928E-29
   4.240000     -5.8150475E-29
   4.250000     -6.0342280E-29
   4.260000     -6.2367763E-29
   4.270000     -6.4201230E-29
   4.280000     -6.5815905E-29
   4.290000     -6.7184050E-29
   4.300000     -6.8276973E-29
   4.310000     -6.9065154E-29
   4.320000     -6.9518319E-29
   4.330000     -6.9605552E-29
   4.340000     -6.9295417E-29
   4.350000     -6.8556076E-29
   4.360000     -6.7355422E-29
   4.370000     -6.5661229E-29
   4.380000     -6.3441300E-29
   4.390000     -6.0663652E-29
   4.400000     -5.7296651E-29
   4.410000     -5.3309211E-29
   4.420000     -4.8671012E-29
   4.430000     -4.3352674E-29
   4.440000     -3.7325973E-29
   4.450000     -3.0564063E-29
   4.460000     -2.3041715E-29
   4.470000     -1.4735562E-29
   4.480000     -5.6243587E-30
   4.490000      4.3107687E-30
   4.500000      1.5086027E-29
   4.510000      2.6714668E-29
   4.520000      3.9206692E-29
   4.530000      5.2568535E-29
   4.540000      6.6802752E-29
   4.550000      8.1907646E-29
   4.560000      9.7876988E-29
   4.570000      1.1469964E-28
   4.580000      1.3235919E-28
   4.590000      1.5083366E-28
   4.600000      1.7009508E-28
   4.610000      1.9010919E-28
   4.620000      2.1083509E-28
   4.630000      2.3222488E-28
   4.640000      2.5422338E-28
   4.650000      2.7676778E-28
   4.660000      2.9978737E-28
   4.670000      3.2320321E-28
   4.680000      3.4692792E-28
   4.690000      3.7086554E-28
   4.700000      3.9491107E-28
   4.710000      4.1895057E-28
   4.720000      4.4286075E-28
   4.730000      4.6650905E-28
   4.740000      4.8975339E-28
   4.750000      5.1244224E-28
   4.760000      5.3441450E-28
   4.770000      5.5549949E-28
   4.780000      5.7551707E-28
   4.790000      5.9427765E-28
   4.800000      6.1158233E-28
   4.810000      6.2722319E-28
   4.820000      6.4098329E-28
   4.830000      6.5263714E-28
   4.840000      6.6195079E-28
   4.850000      6.6868249E-28
   4.860000      6.7258303E-28
   4.870000      6.7339611E-28
   4.880000      6.7085918E-28
   4.890000      6.6470386E-28
   4.900000      6.5465705E-28
   4.910000      6.4044123E-28
   4.920000      6.2177589E-28
   4.930000      5.9837834E-28
   4.940000      5.6996491E-28
   4.950000      5.3625194E-28
   4.960000      4.9695748E-28
   4.970000      4.5180241E-28
   4.980000      4.0051213E-28
   4.990000      3.4281823E-28
   5.000000      2.7845996E-28
   5.010000      2.0718637E-28
   5.020000      1.2875807E-28
   5.030000      4.2949267E-29
   5.040000     -5.0450204E-29
   5.050000     -1.5163252E-28
   5.060000     -2.6076971E-28
   5.070000     -3.7801135E-28
   5.080000     -5.0348200E-28
   5.090000     -6.3727890E-28
   5.100000     -7.7946930E-28
   5.110000     -9.3008790E-28
   5.120000     -1.0891342E-27
   5.130000     -1.2565695E-27
   5.140000     -1.4323147E-27
   5.150000     -1.6162468E-27
   5.160000     -1.8081967E-27
   5.170000     -2.0079457E-27
   5.180000     -2.2152229E-27
   5.190000     -2.4297022E-27
   5.200000     -2.6509992E-27
   5.210000     -2.8786686E-27
   5.220000     -3.1122005E-27
   5.230000     -3.3510183E-27
   5.240000     -3.5944751E-27
   5.250000     -3.8418524E-27
   5.260000     -4.0923538E-27
   5.270000     -4.3451071E-27
   5.280000     -4.5991577E-27
   5.290000     -4.8534694E-27
   5.300000     -5.1069199E-27
   5.310000     -5.3582992E-27
   5.320000     -5.6063093E-27
   5.330000     -5.8495612E-27
   5.340000     -6.0865746E-27
   5.350000     -6.3157768E-27
   5.360000     -6.5355007E-27
   5.370000     -6.7439881E-27
   5.380000     -6.9393860E-27
   5.390000     -7.1197501E-27
   5.400000     -7.2830435E-27
   5.410000     -7.4271424E-27
   5.420000     -7.5498334E-27
   5.430000     -7.6488184E-27
   5.440000     -7.7217164E-27
   5.450000     -7.7660721E-27
   5.460000     -7.7793526E-27
   5.470000     -7.7589570E-27
   5.480000     -7.7022206E-27
   5.490000     -7.6064241E-27
   5.500000     -7.4687948E-27
   5.510000     -7.2865194E-27
   5.520000     -7.0567491E-27
   5.530000     -6.7766110E-27
   5.540000     -6.4432160E-27
   5.550000     -6.0536720E-27
   5.560000     -5.6050925E-27
   5.570000     -5.0946116E-27
   5.580000     -4.5193976E-27
   5.590000     -3.8766674E-27
   5.600000     -3.1636999E-27
   5.610000     -2.3778544E-27
   5.620000     -1.5165879E-27
   5.630000     -5.7747247E-28
   5.640000      4.4178416E-28
   5.650000      1.5433185E-27
   5.660000      2.7290909E-27
   5.670000      4.0008629E-27
   5.680000      5.3601723E-27
   5.690000      6.8083118E-27
   5.700000      8.3463025E-27
   5.710000      9.9748665E-27
   5.720000      1.1694405E-26
   5.730000      1.3504966E-26
   5.740000      1.5406222E-26
   5.750000      1.7397438E-26
   5.760000      1.9477447E-26
   5.770000      2.1644611E-26
   5.780000      2.3896808E-26
   5.790000      2.6231385E-26
   5.800000      2.8645145E-26
   5.810000      3.1134297E-26
   5.820000      3.3694453E-26
   5.830000      3.6320580E-26
   5.840000      3.9006978E-26
   5.850000      4.1747246E-26
   5.860000      4.4534261E-26
   5.870000      4.7360149E-26
   5.880000      5.0216260E-26
   5.890000      5.3093143E-26
   5.900000      5.5980528E-26
   5.910000      5.8867284E-26
   5.920000      6.1741431E-26
   5.930000      6.4590088E-26
   5.940000      6.7399487E-26
   5.950000      7.0154935E-26
   5.960000      7.2840821E-26
   5.970000      7.5440599E-26
   5.980000      7.7936789E-26
   5.990000      8.0310977E-26
   6.000000      8.2543798E-26
   6.010000      8.4614977E-26
   6.020000      8.6503313E-26
   6.030000      8.8186705E-26
   6.040000      8.9642190E-26
   6.050000      9.0845918E-26
   6.060000      9.1773249E-26
   6.070000      9.2398735E-26
   6.080000      9.2696210E-26
   6.090000      9.2638808E-26
   6.100000      9.2199037E-26
   6.110000      9.1348823E-26
   6.120000      9.0059621E-26
   6.130000      8.8302421E-26
   6.140000      8.6047918E-26
   6.150000      8.3266543E-26
   6.160000      7.9928583E-26
   6.170000      7.6004295E-26
   6.180000      7.1464019E-26
   6.190000      6.6278300E-26
   6.200000      6.0418019E-26
   6.210000      5.3854542E-26
   6.220000      4.6559849E-26
   6.230000      3.8506723E-26
   6.240000      2.9668889E-26
   6.250000      2.0021222E-26
   6.260000      9.5398945E-27
   6.270000     -1.7974146E-27
   6.280000     -1.4011299E-26
   6.290000     -2.7120449E-26
   6.300000     -4.1141413E-26
   6.310000     -5.6088386E-26
   6.320000     -7.1972963E-26
   6.330000     -8.8803909E-26
   6.340000     -1.0658693E-25
   6.350000     -1.2532440E-25
   6.360000     -1.4501508E-25
   6.370000     -1.6565394E-25
   6.380000     -1.8723181E-25
   6.390000     -2.0973514E-25
   6.400000     -2.3314572E-25
   6.410000     -2.5744049E-25
   6.420000     -2.8259115E-25
   6.430000     -3.0856395E-25
   6.440000     -3.3531940E-25
   6.450000     -3.6281204E-25
   6.460000     -3.9099018E-25
   6.470000     -4.1979558E-25
   6.480000     -4.4916330E-25
   6.490000     -4.7902134E-25
   6.500000     -5.0929047E-25
   6.510000     -5.3988408E-25
   6.520000     -5.7070798E-25
   6.530000     -6.0166007E-25
   6.540000     -6.3263026E-25
   6.550000     -6.6350036E-25
   6.560000     -6.9414390E-25
   6.570000     -7.2442586E-25
   6.580000     -7.5420294E-25
   6.590000     -7.8332330E-25
   6.600000     -8.1162635E-25
   6.610000     -8.3894312E-25
   6.620000     -8.6509613E-25
   6.630000     -8.8989949E-25
   6.640000     -9.1315866E-25
   6.650000     -9.3467119E-25
   6.660000     -9.5422656E-25
   6.670000     -9.7160635E-25
   6.680000     -9.8658455E-25
   6.690000     -9.9892835E-25
   6.700000     -1.0083977E-24
   6.710000     -1.0147466E-24
   6.720000     -1.0177228E-24
   6.730000     -1.0170688E-24
   6.740000     -1.0125226E-24
   6.750000     -1.0038179E-24
   6.760000     -9.9068505E-25
   6.770000     -9.7285177E-25
   6.780000     -9.5004422E-25
   6.790000     -9.2198759E-25
   6.800000     -8.8840726E-25
   6.810000     -8.4902999E-25
   6.820000     -8.0358465E-25
   6.830000     -7.5180377E-25
   6.840000     -6.9342466E-25
   6.850000     -6.2819075E-25
   6.860000     -5.5585284E-25
   6.870000     -4.7617054E-25
   6.880000     -3.8891415E-25
   6.890000     -2.9386595E-25
   6.900000     -1.9082184E-25
   6.910000     -7.9593089E-26
   6.920000      3.9991904E-26
   6.930000      1.6808559E-25
   6.940000      3.0481963E-25
   6.950000      4.5030315E-25
   6.960000      6.0462032E-25
   6.970000      7.6782864E-25
   6.980000      9.3995666E-25
   6.990000      1.1210020E-24
   7.000000      1.3109296E-24
   7.010000      1.5096692E-24
   7.020000      1.7171131E-24
   7.030000      1.9331143E-24
   7.040000      2.1574845E-24
   7.050000      2.3899912E-24
   7.060000      2.6303565E-24