  -2.600000      0.0000000E+00
  -2.590000      0.0000000E+00
  -2.580000      0.0000000E+00
  -2.570000      0.0000000E+00
  -2.560000      0.0000000E+00
  -2.550000      0.0000000E+00
  -2.540000      0.0000000E+00
  -2.530000      0.0000000E+00
  -2.520000      0.0000000E+00
  -2.510000      0.0000000E+00
  -2.500000      0.0000000E+00
  -2.490000      0.0000000E+00
  -2.480000      0.0000000E+00
  -2.470000      0.0000000E+00
  -2.460000      0.0000000E+00
  -2.450000      0.0000000E+00
  -2.440000      0.0000000E+00
  -2.430000      0.0000000E+00
  -2.420000      0.0000000E+00
  -2.410000      0.0000000E+00
  -2.400000      0.0000000E+00
  -2.390000      0.0000000E+00
  -2.380000      0.0000000E+00
  -2.370000      0.0000000E+00
  -2.360000      0.0000000E+00
  -2.350000      0.0000000E+00
  -2.340000      0.0000000E+00
  -2.330000      0.0000000E+00
  -2.320000      0.0000000E+00
  -2.310000      0.0000000E+00
  -2.300000      0.0000000E+00
  -2.290000      0.0000000E+00
  -2.280000      0.0000000E+00
  -2.270000      0.0000000E+00
  -2.260000      0.0000000E+00
  -2.250000      0.0000000E+00
  -2.240000      0.0000000E+00
  -2.230000      0.0000000E+00
  -2.220000      0.0000000E+00
  -2.210000      0.0000000E+00
  -2.200000      0.0000000E+00
  -2.190000      0.0000000E+00
  -2.180000      0.0000000E+00
  -2.170000      0.0000000E+00
  -2.160000      0.0000000E+00
  -2.150000      0.0000000E+00
  -2.140000      0.0000000E+00
  -2.130000      0.0000000E+00
  -2.120000      0.0000000E+00
  -2.110000      0.0000000E+00
  -2.100000      0.0000000E+00
  -2.090000      0.0000000E+00
  -2.080000      0.0000000E+00
  -2.070000      0.0000000E+00
  -2.060000      0.0000000E+00
  -2.050000      0.0000000E+00
  -2.040000      0.0000000E+00
  -2.030000      0.0000000E+00
  -2.020000      0.0000000E+00
  -2.010000      0.0000000E+00
  -2.000000      0.0000000E+00
  -1.990000      0.0000000E+00
  -1.980000      0.0000000E+00
  -1.970000      0.0000000E+00
  -1.960000      0.0000000E+00
  -1.950000      0.0000000E+00
  -1.940000      0.0000000E+00
  -1.930000      0.0000000E+00
  -1.920000      0.0000000E+00
  -1.910000      0.0000000E+00
  -1.900000      0.0000000E+00
  -1.890000      0.0000000E+00
  -1.880000      0.0000000E+00
  -1.870000      0.0000000E+00
  -1.860000      0.0000000E+00
  -1.850000      0.0000000E+00
  -1.840000      0.0000000E+00
  -1.830000      0.0000000E+00
  -1.820000      0.0000000E+00
  -1.810000      0.0000000E+00
  -1.800000      0.0000000E+00
  -1.790000      0.0000000E+00
  -1.780000      0.0000000E+00
  -1.770000      0.0000000E+00
  -1.760000      0.0000000E+00
  -1.750000      0.0000000E+00
  -1.740000      0.0000000E+00
  -1.730000      0.0000000E+00
  -1.720000      0.0000000E+00
  -1.710000      0.0000000E+00
  -1.700000      0.0000000E+00
  -1.690000      0.0000000E+00
  -1.680000      0.0000000E+00
  -1.670000      0.0000000E+00
  -1.660000      0.0000000E+00
  -1.650000      0.0000000E+00
  -1.640000      0.0000000E+00
  -1.630000      0.0000000E+00
  -1.620000      0.0000000E+00
  -1.610000      0.0000000E+00
  -1.600000      0.0000000E+00
  -1.590000      0.0000000E+00
  -1.580000      0.0000000E+00
  -1.570000      0.0000000E+00
  -1.560000      0.0000000E+00
  -1.550000      0.0000000E+00
  -1.540000      0.0000000E+00
  -1.530000      0.0000000E+00
  -1.520000      0.0000000E+00
  -1.510000      0.0000000E+00
  -1.500000      0.0000000E+00
  -1.490000      0.0000000E+00
  -1.480000      0.0000000E+00
  -1.470000      0.0000000E+00
  -1.460000      0.0000000E+00
  -1.450000      0.0000000E+00
  -1.440000      0.0000000E+00
  -1.430000      0.0000000E+00
  -1.420000      0.0000000E+00
  -1.410000      0.0000000E+00
  -1.400000      0.0000000E+00
  -1.390000      0.0000000E+00
  -1.380000      0.0000000E+00
  -1.370000      0.0000000E+00
  -1.360000      0.0000000E+00
  -1.350000      0.0000000E+00
  -1.340000      0.0000000E+00
  -1.330000      0.0000000E+00
  -1.320000      0.0000000E+00
  -1.310000      0.0000000E+00
  -1.300000      0.0000000E+00
  -1.290000      0.0000000E+00
  -1.280000      0.0000000E+00
  -1.270000      0.0000000E+00
  -1.260000      0.0000000E+00
  -1.250000      0.0000000E+00
  -1.240000      0.0000000E+00
  -1.230000      0.0000000E+00
  -1.220000      0.0000000E+00
  -1.210000      0.0000000E+00
  -1.200000      0.0000000E+00
  -1.190000      0.0000000E+00
  -1.180000      0.0000000E+00
  -1.170000      0.0000000E+00
  -1.160000      0.0000000E+00
  -1.150000      0.0000000E+00
  -1.140000      0.0000000E+00
  -1.130000      0.0000000E+00
  -1.120000      0.0000000E+00
  -1.110000      0.0000000E+00
  -1.100000      0.0000000E+00
  -1.090000      0.0000000E+00
  -1.080000      0.0000000E+00
  -1.070000      0.0000000E+00
  -1.060000      0.0000000E+00
  -1.050000      0.0000000E+00
  -1.040000      0.0000000E+00
  -1.030000      0.0000000E+00
  -1.020000      0.0000000E+00
  -1.010000      0.0000000E+00
  -1.000000      0.0000000E+00
 -0.9900000      0.0000000E+00
 -0.9800000      0.0000000E+00
 -0.9700000      0.0000000E+00
 -0.9600000      0.0000000E+00
 -0.9500000      0.0000000E+00
 -0.9400000      0.0000000E+00
 -0.9300000      0.0000000E+00
 -0.9200000      0.0000000E+00
 -0.9100000      0.0000000E+00
 -0.9000000      0.0000000E+00
 -0.8900000      0.0000000E+00
 -0.8800000      0.0000000E+00
 -0.8700000      0.0000000E+00
 -0.8600000      0.0000000E+00
 -0.8500000      0.0000000E+00
 -0.8400000      0.0000000E+00
 -0.8300000      0.0000000E+00
 -0.8200000      0.0000000E+00
 -0.8100000      0.0000000E+00
 -0.8000000      0.0000000E+00
 -0.7900000      0.0000000E+00
 -0.7800000      0.0000000E+00
 -0.7700000      0.0000000E+00
 -0.7600000      0.0000000E+00
 -0.7500000      0.0000000E+00
 -0.7400000      0.0000000E+00
 -0.7300000      0.0000000E+00
 -0.7200000      0.0000000E+00
 -0.7100000      0.0000000E+00
 -0.7000000      0.0000000E+00
 -0.6900000      0.0000000E+00
 -0.6800000      0.0000000E+00
 -0.6700000      0.0000000E+00
 -0.6600000      0.0000000E+00
 -0.6500000      0.0000000E+00
 -0.6400000      0.0000000E+00
 -0.6300000      0.0000000E+00
 -0.6200000      0.0000000E+00
 -0.6100000      0.0000000E+00
 -0.6000000      0.0000000E+00
 -0.5900000      0.0000000E+00
 -0.5800000      0.0000000E+00
 -0.5700000      0.0000000E+00
 -0.5600000      0.0000000E+00
 -0.5500000      0.0000000E+00
 -0.5400000      0.0000000E+00
 -0.5300000      0.0000000E+00
 -0.5200000      0.0000000E+00
 -0.5100000      0.0000000E+00
 -0.5000000      0.0000000E+00
 -0.4900000      0.0000000E+00
 -0.4800000      0.0000000E+00
 -0.4700000      0.0000000E+00
 -0.4600000      0.0000000E+00
 -0.4500000      0.0000000E+00
 -0.4400000      0.0000000E+00
 -0.4300000      0.0000000E+00
 -0.4200000      0.0000000E+00
 -0.4100000      0.0000000E+00
 -0.4000000      0.0000000E+00
 -0.3900000      0.0000000E+00
 -0.3800000      0.0000000E+00
 -0.3700000      0.0000000E+00
 -0.3600000      0.0000000E+00
 -0.3500000      0.0000000E+00
 -0.3400000      0.0000000E+00
 -0.3300000      0.0000000E+00
 -0.3200000      0.0000000E+00
 -0.3100000      0.0000000E+00
 -0.3000000      0.0000000E+00
 -0.2900000      0.0000000E+00
 -0.2800000      0.0000000E+00
 -0.2700000      0.0000000E+00
 -0.2600000      0.0000000E+00
 -0.2500000      0.0000000E+00
 -0.2400000      0.0000000E+00
 -0.2300000      0.0000000E+00
 -0.2200000      0.0000000E+00
 -0.2100000      0.0000000E+00
 -0.2000000      0.0000000E+00
 -0.1900000      0.0000000E+00
 -0.1800000      0.0000000E+00
 -0.1700000      0.0000000E+00
 -0.1600000      0.0000000E+00
 -0.1500000      0.0000000E+00
 -0.1400000      0.0000000E+00
 -0.1300000      0.0000000E+00
 -0.1200000      0.0000000E+00
 -0.1100000      0.0000000E+00
 -0.1000000      0.0000000E+00
 -9.0000004E-02  0.0000000E+00
 -7.9999998E-02  0.0000000E+00
 -7.0000000E-02  0.0000000E+00
 -5.9999999E-02  0.0000000E+00
 -5.0000001E-02  0.0000000E+00
 -3.9999999E-02  0.0000000E+00
 -2.9999999E-02  0.0000000E+00
 -2.0000000E-02  0.0000000E+00
 -9.9999998E-03  0.0000000E+00
 -3.4694470E-17  0.0000000E+00
  9.9999998E-03  0.0000000E+00
  2.0000000E-02  0.0000000E+00
  2.9999999E-02  0.0000000E+00
  3.9999999E-02  0.0000000E+00
  5.0000001E-02  0.0000000E+00
  5.9999999E-02  0.0000000E+00
  7.0000000E-02  0.0000000E+00
  7.9999998E-02  0.0000000E+00
  9.0000004E-02  0.0000000E+00
  0.1000000      0.0000000E+00
  0.1100000      0.0000000E+00
  0.1200000      0.0000000E+00
  0.1300000      0.0000000E+00
  0.1400000      0.0000000E+00
  0.1500000      0.0000000E+00
  0.1600000      0.0000000E+00
  0.1700000      0.0000000E+00
  0.1800000      0.0000000E+00
  0.1900000      0.0000000E+00
  0.2000000      0.0000000E+00
  0.2100000      0.0000000E+00
  0.2200000      0.0000000E+00
  0.2300000      0.0000000E+00
  0.2400000      0.0000000E+00
  0.2500000      0.0000000E+00
  0.2600000      0.0000000E+00
  0.2700000      0.0000000E+00
  0.2800000      0.0000000E+00
  0.2900000      0.0000000E+00
  0.3000000      0.0000000E+00
  0.3100000      0.0000000E+00
  0.3200000      0.0000000E+00
  0.3300000      0.0000000E+00
  0.3400000      0.0000000E+00
  0.3500000      0.0000000E+00
  0.3600000      0.0000000E+00
  0.3700000      0.0000000E+00
  0.3800000      0.0000000E+00
  0.3900000      0.0000000E+00
  0.4000000      0.0000000E+00
  0.4100000      0.0000000E+00
  0.4200000      0.0000000E+00
  0.4300000      0.0000000E+00
  0.4400000      0.0000000E+00
  0.4500000      0.0000000E+00
  0.4600000      0.0000000E+00
  0.4700000      0.0000000E+00
  0.4800000      0.0000000E+00
  0.4900000      0.0000000E+00
  0.5000000      0.0000000E+00
  0.5100000      0.0000000E+00
  0.5200000      0.0000000E+00
  0.5300000      0.0000000E+00
  0.5400000      0.0000000E+00
  0.5500000      0.0000000E+00
  0.5600000      0.0000000E+00
  0.5700000      0.0000000E+00
  0.5800000      0.0000000E+00
  0.5900000      0.0000000E+00
  0.6000000      0.0000000E+00
  0.6100000      0.0000000E+00
  0.6200000      0.0000000E+00
  0.6300000      0.0000000E+00
  0.6400000      0.0000000E+00
  0.6500000      0.0000000E+00
  0.6600000      0.0000000E+00
  0.6700000      0.0000000E+00
  0.6800000      0.0000000E+00
  0.6900000     -1.2760542E-38
  0.7000000     -1.8730576E-38
  0.7100000     -2.5246312E-38
  0.7200000     -3.2154567E-38
  0.7300000     -3.9650183E-38
  0.7400000     -4.7539432E-38
  0.7500000     -5.5251573E-38
  0.7600000     -6.2891149E-38
  0.7700000     -7.1822521E-38
  0.7800000     -7.8609088E-38
  0.7900000     -8.2122687E-38
  0.8000000     -8.4883604E-38
  0.8100000     -8.1354479E-38
  0.8200000     -7.3385967E-38
  0.8300000     -6.3282454E-38
  0.8400000     -4.7716909E-38
  0.8500000     -2.9201488E-38
  0.8600000      0.0000000E+00
  0.8700000      0.0000000E+00
  0.8800000      2.7887087E-38
  0.8900000      4.9372330E-38
  0.9000000      7.3404414E-38
  0.9100000      1.0269800E-37
  0.9200000      1.3407754E-37
  0.9300000      1.6515039E-37
  0.9400000      2.0021737E-37
  0.9500000      2.3995595E-37
  0.9600000      2.8342705E-37
  0.9700000      3.2692331E-37
  0.9800000      3.7368958E-37
  0.9900000      4.2697250E-37
   1.000000      4.8055663E-37
   1.010000      5.2299131E-37
   1.020000      4.6837054E-37
   1.030000      3.1438212E-37
   1.040000      1.3984516E-37
   1.050000     -5.3275159E-38
   1.060000     -2.5340196E-37
   1.070000     -4.5177723E-37
   1.080000     -6.5704894E-37
   1.090000     -8.8494630E-37
   1.100000     -1.1535879E-36
   1.110000     -1.4531841E-36
   1.120000     -1.7592557E-36
   1.130000     -2.1072343E-36
   1.140000     -1.9809157E-36
   1.150000     -1.2585350E-36
   1.160000     -3.5397595E-37
   1.170000      6.4449479E-37
   1.180000      1.5423511E-36
   1.190000      2.2186814E-36
   1.200000      2.3121685E-36
   1.210000      1.9800806E-36
   1.220000      1.6667526E-36
   1.230000      1.3485990E-36
   1.240000      1.1898344E-36
   1.250000      1.1807299E-36
   1.260000      1.1403780E-36
   1.270000      5.2002155E-37
   1.280000     -5.3165887E-37
   1.290000     -1.3646219E-36
   1.300000     -2.0207662E-36
   1.310000     -2.4292788E-36
   1.320000     -2.1369465E-36
   1.330000     -1.2380844E-36
   1.340000     -2.2650678E-37
   1.350000      9.8181419E-37
   1.360000      2.6326570E-36
   1.370000      4.6998286E-36
   1.380000      6.4635910E-36
   1.390000      7.0262291E-36
   1.400000      6.2530689E-36
   1.410000      4.6820957E-36
   1.420000      2.7129368E-36
   1.430000      5.7375531E-37
   1.440000     -1.5156586E-36
   1.450000     -3.1913811E-36
   1.460000     -4.1441661E-36
   1.470000     -3.2110618E-36
   1.480000     -7.7191752E-37
   1.490000      1.5024468E-36
   1.500000      3.5772548E-36
   1.510000      5.5006244E-36
   1.520000      7.9997492E-36
   1.530000      1.1251883E-35
   1.540000      1.4939008E-35
   1.550000      1.9104663E-35
   1.560000      2.2762386E-35
   1.570000      2.5589921E-35
   1.580000      2.7880932E-35
   1.590000      2.9420391E-35
   1.600000      3.0366176E-35
   1.610000      3.1315967E-35
   1.620000      3.2469662E-35
   1.630000      3.3973976E-35
   1.640000      3.6154031E-35
   1.650000      3.8916732E-35
   1.660000      4.2227666E-35
   1.670000      4.5492366E-35
   1.680000      4.8370307E-35
   1.690000      5.0699123E-35
   1.700000      5.1696870E-35
   1.710000      5.1338614E-35
   1.720000      4.9183671E-35
   1.730000      4.4274897E-35
   1.740000      3.6938696E-35
   1.750000      2.7910242E-35
   1.760000      1.7452723E-35
   1.770000      6.0402738E-36
   1.780000     -8.0499839E-36
   1.790000     -2.5669172E-35
   1.800000     -4.5863195E-35
   1.810000     -6.8407888E-35
   1.820000     -9.1165120E-35
   1.830000     -1.1627467E-34
   1.840000     -1.4544332E-34
   1.850000     -1.7712608E-34
   1.860000     -2.1072371E-34
   1.870000     -2.4658637E-34
   1.880000     -2.8466244E-34
   1.890000     -3.2967302E-34
   1.900000     -3.8281381E-34
   1.910000     -4.3692184E-34
   1.920000     -4.9360211E-34
   1.930000     -5.5364898E-34
   1.940000     -6.1441855E-34
   1.950000     -6.7863589E-34
   1.960000     -7.3244883E-34
   1.970000     -7.6366349E-34
   1.980000     -7.8105906E-34
   1.990000     -7.8127285E-34
   2.000000     -7.6650451E-34
   2.010000     -7.4508315E-34
   2.020000     -7.2851565E-34
   2.030000     -7.2305576E-34
   2.040000     -7.0947609E-34
   2.050000     -6.8658944E-34
   2.060000     -6.7674371E-34
   2.070000     -6.7799906E-34
   2.080000     -6.7761983E-34
   2.090000     -6.6940069E-34
   2.100000     -6.4321885E-34
   2.110000     -5.9784316E-34
   2.120000     -5.2727727E-34
   2.130000     -4.2664049E-34
   2.140000     -2.9667811E-34
   2.150000     -1.3708183E-34
   2.160000      5.3145747E-35
   2.170000      2.7610712E-34
   2.180000      5.2420473E-34
   2.190000      7.8976304E-34
   2.200000      1.0705728E-33
   2.210000      1.3564097E-33
   2.220000      1.6406865E-33
   2.230000      1.9254405E-33
   2.240000      2.2114100E-33
   2.250000      2.5011126E-33
   2.260000      2.7954538E-33
   2.270000      3.1013310E-33
   2.280000      3.4249236E-33
   2.290000      3.7670671E-33
   2.300000      4.1291671E-33
   2.310000      4.5107561E-33
   2.320000      4.9117771E-33
   2.330000      5.3226436E-33
   2.340000      5.7352421E-33
   2.350000      6.1414893E-33
   2.360000      6.5287206E-33
   2.370000      6.8861723E-33
   2.380000      7.2049068E-33
   2.390000      7.4780991E-33
   2.400000      7.6963685E-33
   2.410000      7.8534998E-33
   2.420000      7.9455013E-33
   2.430000      7.9695542E-33
   2.440000      7.9241264E-33
   2.450000      7.8079773E-33
   2.460000      7.6198629E-33
   2.470000      7.3570577E-33
   2.480000      7.0184507E-33
   2.490000      6.5929121E-33
   2.500000      6.0720513E-33
   2.510000      5.4534607E-33
   2.520000      4.7223627E-33
   2.530000      3.8655379E-33
   2.540000      2.8728577E-33
   2.550000      1.7337721E-33
   2.560000      4.4023889E-34
   2.570000     -1.0133886E-33
   2.580000     -2.6306695E-33
   2.590000     -4.4117354E-33
   2.600000     -6.3535793E-33
   2.610000     -8.4503335E-33
   2.620000     -1.0693834E-32
   2.630000     -1.3074171E-32
   2.640000     -1.5579320E-32
   2.650000     -1.8199049E-32
   2.660000     -2.0923028E-32
   2.670000     -2.3738446E-32
   2.680000     -2.6633461E-32
   2.690000     -2.9594742E-32
   2.700000     -3.2610973E-32
   2.710000     -3.5669400E-32
   2.720000     -3.8752023E-32
   2.730000     -4.1838977E-32
   2.740000     -4.4906799E-32
   2.750000     -4.7927984E-32
   2.760000     -5.0870717E-32
   2.770000     -5.3699056E-32
   2.780000     -5.6373335E-32
   2.790000     -5.8850772E-32
   2.800000     -6.1086257E-32
   2.810000     -6.3033316E-32
   2.820000     -6.4644960E-32
   2.830000     -6.5874492E-32
   2.840000     -6.6676085E-32
   2.850000     -6.7005135E-32
   2.860000     -6.6818379E-32
   2.870000     -6.6073744E-32
   2.880000     -6.4730789E-32
   2.890000     -6.2747935E-32
   2.900000     -6.0083625E-32
   2.910000     -5.6697578E-32
   2.920000     -5.2548318E-32
   2.930000     -4.7593909E-32
   2.940000     -4.1792315E-32
   2.950000     -3.5102418E-32
   2.960000     -2.7484777E-32
   2.970000     -1.8902615E-32
   2.980000     -9.3235010E-33
   2.990000      1.2792534E-33
   3.000000      1.2925319E-32
   3.010000      2.5626271E-32
   3.020000      3.9384547E-32
   3.030000      5.4192735E-32
   3.040000      7.0033256E-32
   3.050000      8.6878307E-32
   3.060000      1.0468984E-31
   3.070000      1.2341975E-31
   3.080000      1.4301022E-31
   3.090000      1.6339361E-31
   3.100000      1.8449253E-31
   3.110000      2.0621998E-31
   3.120000      2.2847856E-31
   3.130000      2.5115979E-31
   3.140000      2.7414362E-31
   3.150000      2.9729722E-31
   3.160000      3.2047432E-31
   3.170000      3.4351441E-31
   3.180000      3.6624233E-31
   3.190000      3.8846809E-31
   3.200000      4.0998690E-31
   3.210000      4.3057991E-31
   3.220000      4.5001497E-31
   3.230000      4.6804795E-31
   3.240000      4.8442386E-31
   3.250000      4.9887867E-31
   3.260000      5.1114091E-31
   3.270000      5.2093278E-31
   3.280000      5.2797169E-31
   3.290000      5.3197119E-31
   3.300000      5.3264230E-31
   3.310000      5.2969402E-31
   3.320000      5.2283431E-31
   3.330000      5.1177098E-31
   3.340000      4.9621289E-31
   3.350000      4.7587129E-31
   3.360000      4.5046157E-31
   3.370000      4.1970551E-31
   3.380000      3.8333433E-31
   3.390000      3.4109162E-31
   3.400000      2.9273698E-31
   3.410000      2.3805014E-31
   3.420000      1.7683500E-31
   3.430000      1.0892372E-31
   3.440000      3.4181128E-32
   3.450000     -4.7491497E-32
   3.460000     -1.3615260E-31
   3.470000     -2.3181715E-31
   3.480000     -3.3445344E-31
   3.490000     -4.4398045E-31
   3.500000     -5.6026520E-31
   3.510000     -6.8312035E-31
   3.520000     -8.1230205E-31
   3.530000     -9.4750760E-31
   3.540000     -1.0883727E-30
   3.550000     -1.2344698E-30
   3.560000     -1.3853047E-30
   3.570000     -1.5403139E-30
   3.580000     -1.6988628E-30
   3.590000     -1.8602428E-30
   3.600000     -2.0236681E-30
   3.610000     -2.1882762E-30
   3.620000     -2.3531243E-30
   3.630000     -2.5171901E-30
   3.640000     -2.6793701E-30
   3.650000     -2.8384811E-30
   3.660000     -2.9932613E-30
   3.670000     -3.1423719E-30
   3.680000     -3.2843974E-30
   3.690000     -3.4178508E-30
   3.700000     -3.5411743E-30
   3.710000     -3.6527447E-30
   3.720000     -3.7508757E-30
   3.730000     -3.8338224E-30
   3.740000     -3.8997855E-30
   3.750000     -3.9469177E-30
   3.760000     -3.9733285E-30
   3.770000     -3.9770924E-30
   3.780000     -3.9562573E-30
   3.790000     -3.9088527E-30
   3.800000     -3.8329008E-30
   3.810000     -3.7264277E-30
   3.820000     -3.5874779E-30
   3.830000     -3.4141276E-30
   3.840000     -3.2045014E-30
   3.850000     -2.9567864E-30
   3.860000     -2.6692503E-30
   3.870000     -2.3402595E-30
   3.880000     -1.9682970E-30
   3.890000     -1.5519793E-30
   3.900000     -1.0900739E-30
   3.910000     -5.8151974E-31
   3.920000     -2.5444319E-32
   3.930000      5.7881901E-31
   3.940000      1.2317119E-30
   3.950000      1.9334320E-30
   3.960000      2.6839150E-30
   3.970000      3.4828156E-30
   3.980000      4.3294886E-30
   3.990000      5.2229689E-30
   4.000000      6.1619493E-30
   4.010000      7.1447653E-30
   4.020000      8.1693698E-30
   4.030000      9.2333167E-30
   4.040000      1.0333740E-29
   4.050000      1.1467331E-29
   4.060000      1.2630328E-29
   4.070000      1.3818493E-29
   4.080000      1.5027092E-29
   4.090000      1.6250887E-29
   4.100000      1.7484117E-29
   4.110000      1.8720487E-29
   4.120000      1.9953167E-29
   4.130000      2.1174762E-29
   4.140000      2.2377326E-29
   4.150000      2.3552352E-29
   4.160000      2.4690772E-29
   4.170000      2.5782957E-29
   4.180000      2.6818728E-29
   4.190000      2.7787356E-29
   4.200000      2.8677596E-29
   4.210000      2.9477676E-29
   4.220000      3.0175344E-29
   4.230000      3.0757887E-29
   4.240000      3.1212150E-29
   4.250000      3.1524599E-29
   4.260000      3.1681340E-29
   4.270000      3.1668180E-29
   4.280000      3.1470664E-29
   4.290000      3.1074133E-29
   4.300000      3.0463800E-29
   4.310000      2.9624787E-29
   4.320000      2.8542213E-29
   4.330000      2.7201257E-29
   4.340000      2.5587237E-29
   4.350000      2.3685691E-29
   4.360000      2.1482471E-29
   4.370000      1.8963812E-29
   4.380000      1.6116444E-29
   4.390000      1.2927690E-29
   4.400000      9.3855629E-30
   4.410000      5.4788814E-30
   4.420000      1.1973954E-30
   4.430000     -3.4680901E-30
   4.440000     -8.5255901E-30
   4.450000     -1.3981806E-29
   4.460000     -1.9841987E-29
   4.470000     -2.6109760E-29
   4.480000     -3.2787004E-29
   4.490000     -3.9873671E-29
   4.500000     -4.7367636E-29
   4.510000     -5.5264554E-29
   4.520000     -6.3557668E-29
   4.530000     -7.2237654E-29
   4.540000     -8.1292444E-29
   4.550000     -9.0707099E-29
   4.560000     -1.0046363E-28
   4.570000     -1.1054083E-28
   4.580000     -1.2091409E-28
   4.590000     -1.3155532E-28
   4.600000     -1.4243271E-28
   4.610000     -1.5351072E-28
   4.620000     -1.6474983E-28
   4.630000     -1.7610642E-28
   4.640000     -1.8753276E-28
   4.650000     -1.9897681E-28
   4.660000     -2.1038223E-28
   4.670000     -2.2168811E-28
   4.680000     -2.3282916E-28
   4.690000     -2.4373546E-28
   4.700000     -2.5433251E-28
   4.710000     -2.6454119E-28
   4.720000     -2.7427773E-28
   4.730000     -2.8345377E-28
   4.740000     -2.9197637E-28
   4.750000     -2.9974801E-28
   4.760000     -3.0666664E-28
   4.770000     -3.1262602E-28
   4.780000     -3.1751548E-28
   4.790000     -3.2122037E-28
   4.800000     -3.2362203E-28
   4.810000     -3.2459818E-28
   4.820000     -3.2402298E-28
   4.830000     -3.2176740E-28
   4.840000     -3.1769972E-28
   4.850000     -3.1168559E-28
   4.860000     -3.0358872E-28
   4.870000     -2.9327113E-28
   4.880000     -2.8059381E-28
   4.890000     -2.6541712E-28
   4.900000     -2.4760138E-28
   4.910000     -2.2700763E-28
   4.920000     -2.0349840E-28
   4.930000     -1.7693827E-28
   4.940000     -1.4719460E-28
   4.950000     -1.1413854E-28
   4.960000     -7.7645834E-29
   4.970000     -3.7597803E-29
   4.980000      6.1176988E-30
   4.990000      5.3605305E-29
   5.000000      1.0496121E-28
   5.010000      1.6027189E-28
   5.020000      2.1961302E-28
   5.030000      2.8304822E-28
   5.040000      3.5062785E-28
   5.050000      4.2238802E-28
   5.060000      4.9834891E-28
   5.070000      5.7851373E-28
   5.080000      6.6286724E-28
   5.090000      7.5137441E-28
   5.100000      8.4397890E-28
   5.110000      9.4060156E-28
   5.120000      1.0411393E-27
   5.130000      1.1454633E-27
   5.140000      1.2534175E-27
   5.150000      1.3648169E-27
   5.160000      1.4794465E-27
   5.170000      1.5970595E-27
   5.180000      1.7173756E-27
   5.190000      1.8400803E-27
   5.200000      1.9648220E-27
   5.210000      2.0912119E-27
   5.220000      2.2188227E-27
   5.230000      2.3471859E-27
   5.240000      2.4757918E-27
   5.250000      2.6040880E-27
   5.260000      2.7314788E-27
   5.270000      2.8573231E-27
   5.280000      2.9809340E-27
   5.290000      3.1015790E-27
   5.300000      3.2184787E-27
   5.310000      3.3308065E-27
   5.320000      3.4376883E-27
   5.330000      3.5382033E-27
   5.340000      3.6313829E-27
   5.350000      3.7162120E-27
   5.360000      3.7916295E-27
   5.370000      3.8565287E-27
   5.380000      3.9097584E-27
   5.390000      3.9501243E-27
   5.400000      3.9763913E-27
   5.410000      3.9872847E-27
   5.420000      3.9814919E-27
   5.430000      3.9576662E-27
   5.440000      3.9144287E-27
   5.450000      3.8503719E-27
   5.460000      3.7640633E-27
   5.470000      3.6540503E-27
   5.480000      3.5188624E-27
   5.490000      3.3570180E-27
   5.500000      3.1670287E-27
   5.510000      2.9474045E-27
   5.520000      2.6966605E-27
   5.530000      2.4133239E-27
   5.540000      2.0959406E-27
   5.550000      1.7430810E-27
   5.560000      1.3533495E-27
   5.570000      9.2539566E-28
   5.580000      4.5791960E-28
   5.590000     -5.0317553E-29
   5.600000     -6.0048180E-28
   5.610000     -1.1936575E-27
   5.620000     -1.8308358E-27
   5.630000     -2.5129035E-27
   5.640000     -3.2406325E-27
   5.650000     -4.0146634E-27
   5.660000     -4.8354974E-27
   5.670000     -5.7034794E-27
   5.680000     -6.6187849E-27
   5.690000     -7.5814101E-27
   5.700000     -8.5911552E-27
   5.710000     -9.6476056E-27
   5.720000     -1.0750123E-26
   5.730000     -1.1897830E-26
   5.740000     -1.3089594E-26
   5.750000     -1.4324010E-26
   5.760000     -1.5599393E-26
   5.770000     -1.6913753E-26
   5.780000     -1.8264785E-26
   5.790000     -1.9649853E-26
   5.800000     -2.1065982E-26
   5.810000     -2.2509825E-26
   5.820000     -2.3977669E-26
   5.830000     -2.5465408E-26
   5.840000     -2.6968535E-26
   5.850000     -2.8482128E-26
   5.860000     -3.0000846E-26
   5.870000     -3.1518894E-26
   5.880000     -3.3030044E-26
   5.890000     -3.4527597E-26
   5.900000     -3.6004391E-26
   5.910000     -3.7452799E-26
   5.920000     -3.8864709E-26
   5.930000     -4.0231524E-26
   5.940000     -4.1544170E-26
   5.950000     -4.2793079E-26
   5.960000     -4.3968198E-26
   5.970000     -4.5059002E-26
   5.980000     -4.6054473E-26
   5.990000     -4.6943143E-26
   6.000000     -4.7713087E-26
   6.010000     -4.8351916E-26
   6.020000     -4.8846834E-26
   6.030000     -4.9184636E-26
   6.040000     -4.9351730E-26
   6.050000     -4.9334159E-26
   6.060000     -4.9117635E-26
   6.070000     -4.8687561E-26
   6.080000     -4.8029069E-26
   6.090000     -4.7127059E-26
   6.100000     -4.5966259E-26
   6.110000     -4.4531260E-26
   6.120000     -4.2806560E-26
   6.130000     -4.0776624E-26
   6.140000     -3.8425948E-26
   6.150000     -3.5739112E-26
   6.160000     -3.2700870E-26
   6.170000     -2.9296165E-26
   6.180000     -2.5510238E-26
   6.190000     -2.1328727E-26
   6.200000     -1.6737733E-26
   6.210000     -1.1723897E-26
   6.220000     -6.2745122E-27
   6.230000     -3.7761133E-28
   6.240000      5.9779086E-27
   6.250000      1.2802199E-26
   6.260000      2.0104344E-26
   6.270000      2.7892254E-26
   6.280000      3.6172539E-26
   6.290000      4.4950391E-26
   6.300000      5.4229460E-26
   6.310000      6.4011742E-26
   6.320000      7.4297441E-26
   6.330000      8.5084805E-26
   6.340000      9.6370022E-26
   6.350000      1.0814712E-25
   6.360000      1.2040778E-25
   6.370000      1.3314119E-25
   6.380000      1.4633391E-25
   6.390000      1.5996977E-25
   6.400000      1.7402970E-25
   6.410000      1.8849160E-25
   6.420000      2.0333020E-25
   6.430000      2.1851694E-25
   6.440000      2.3401985E-25
   6.450000      2.4980341E-25
   6.460000      2.6582840E-25
   6.470000      2.8205187E-25
   6.480000      2.9842694E-25
   6.490000      3.1490277E-25
   6.500000      3.3142448E-25
   6.510000      3.4793294E-25
   6.520000      3.6436487E-25
   6.530000      3.8065263E-25
   6.540000      3.9672434E-25
   6.550000      4.1250358E-25
   6.560000      4.2790961E-25
   6.570000      4.4285714E-25
   6.580000      4.5725662E-25
   6.590000      4.7101396E-25
   6.600000      4.8403090E-25
   6.610000      4.9620460E-25
   6.620000      5.0742822E-25
   6.630000      5.1759077E-25
   6.640000      5.2657728E-25
   6.650000      5.3426887E-25
   6.660000      5.4054312E-25
   6.670000      5.4527412E-25
   6.680000      5.4833263E-25
   6.690000      5.4958662E-25
   6.700000      5.4890130E-25
   6.710000      5.4613945E-25
   6.720000      5.4116188E-25
   6.730000      5.3382770E-25
   6.740000      5.2399474E-25
   6.750000      5.1152019E-25
   6.760000      4.9626061E-25
   6.770000      4.7807288E-25
   6.780000      4.5681441E-25
   6.790000      4.3234414E-25
   6.800000      4.0452272E-25
   6.810000      3.7321340E-25
   6.820000      3.3828266E-25
   6.830000      2.9960104E-25
   6.840000      2.5704352E-25
   6.850000      2.1049057E-25
   6.860000      1.5982886E-25
   6.870000      1.0495209E-25
   6.880000      4.5761951E-26
   6.890000     -1.7831264E-26
   6.900000     -8.5907372E-26
   6.910000     -1.5853527E-25
   6.920000     -2.3577241E-25
   6.930000     -3.1766329E-25
   6.940000     -4.0423856E-25
   6.950000     -4.9551420E-25
   6.960000     -5.9149057E-25
   6.970000     -6.9215104E-25
   6.980000     -7.9746092E-25
   6.990000     -9.0736645E-25
   7.000000     -1.0217937E-24
   7.010000     -1.1406475E-24
   7.020000     -1.2638110E-24
   7.030000     -1.3911434E-24
   7.040000     -1.5224795E-24
   7.050000     -1.6576285E-24
   7.060000     -1.7963731E-24