  -2.600000      0.0000000E+00
  -2.590000      0.0000000E+00
  -2.580000      0.0000000E+00
  -2.570000      0.0000000E+00
  -2.560000      0.0000000E+00
  -2.550000      0.0000000E+00
  -2.540000      0.0000000E+00
  -2.530000      0.0000000E+00
  -2.520000      0.0000000E+00
  -2.510000      0.0000000E+00
  -2.500000      0.0000000E+00
  -2.490000      0.0000000E+00
  -2.480000      0.0000000E+00
  -2.470000      0.0000000E+00
  -2.460000      0.0000000E+00
  -2.450000      0.0000000E+00
  -2.440000      0.0000000E+00
  -2.430000      0.0000000E+00
  -2.420000      0.0000000E+00
  -2.410000      0.0000000E+00
  -2.400000      0.0000000E+00
  -2.390000      0.0000000E+00
  -2.380000      0.0000000E+00
  -2.370000      0.0000000E+00
  -2.360000      0.0000000E+00
  -2.350000      0.0000000E+00
  -2.340000      0.0000000E+00
  -2.330000      0.0000000E+00
  -2.320000      0.0000000E+00
  -2.310000      0.0000000E+00
  -2.300000      0.0000000E+00
  -2.290000      0.0000000E+00
  -2.280000      0.0000000E+00
  -2.270000      0.0000000E+00
  -2.260000      0.0000000E+00
  -2.250000      0.0000000E+00
  -2.240000      0.0000000E+00
  -2.230000      0.0000000E+00
  -2.220000      0.0000000E+00
  -2.210000      0.0000000E+00
  -2.200000      0.0000000E+00
  -2.190000      0.0000000E+00
  -2.180000      0.0000000E+00
  -2.170000      0.0000000E+00
  -2.160000      0.0000000E+00
  -2.150000      0.0000000E+00
  -2.140000      0.0000000E+00
  -2.130000      0.0000000E+00
  -2.120000      0.0000000E+00
  -2.110000      0.0000000E+00
  -2.100000      0.0000000E+00
  -2.090000      0.0000000E+00
  -2.080000      0.0000000E+00
  -2.070000      0.0000000E+00
  -2.060000      0.0000000E+00
  -2.050000      0.0000000E+00
  -2.040000      0.0000000E+00
  -2.030000      0.0000000E+00
  -2.020000      0.0000000E+00
  -2.010000      0.0000000E+00
  -2.000000      0.0000000E+00
  -1.990000      0.0000000E+00
  -1.980000      0.0000000E+00
  -1.970000      0.0000000E+00
  -1.960000      0.0000000E+00
  -1.950000      0.0000000E+00
  -1.940000      0.0000000E+00
  -1.930000      0.0000000E+00
  -1.920000      0.0000000E+00
  -1.910000      0.0000000E+00
  -1.900000      0.0000000E+00
  -1.890000      0.0000000E+00
  -1.880000      0.0000000E+00
  -1.870000      0.0000000E+00
  -1.860000      0.0000000E+00
  -1.850000      0.0000000E+00
  -1.840000      0.0000000E+00
  -1.830000      0.0000000E+00
  -1.820000      0.0000000E+00
  -1.810000      0.0000000E+00
  -1.800000      0.0000000E+00
  -1.790000      0.0000000E+00
  -1.780000      0.0000000E+00
  -1.770000      0.0000000E+00
  -1.760000      0.0000000E+00
  -1.750000      0.0000000E+00
  -1.740000      0.0000000E+00
  -1.730000      0.0000000E+00
  -1.720000      0.0000000E+00
  -1.710000      0.0000000E+00
  -1.700000      0.0000000E+00
  -1.690000      0.0000000E+00
  -1.680000      0.0000000E+00
  -1.670000      0.0000000E+00
  -1.660000      0.0000000E+00
  -1.650000      0.0000000E+00
  -1.640000      0.0000000E+00
  -1.630000      0.0000000E+00
  -1.620000      0.0000000E+00
  -1.610000      0.0000000E+00
  -1.600000      0.0000000E+00
  -1.590000      0.0000000E+00
  -1.580000      0.0000000E+00
  -1.570000      0.0000000E+00
  -1.560000      0.0000000E+00
  -1.550000      0.0000000E+00
  -1.540000      0.0000000E+00
  -1.530000      0.0000000E+00
  -1.520000      0.0000000E+00
  -1.510000      0.0000000E+00
  -1.500000      0.0000000E+00
  -1.490000      0.0000000E+00
  -1.480000      0.0000000E+00
  -1.470000      0.0000000E+00
  -1.460000      0.0000000E+00
  -1.450000      0.0000000E+00
  -1.440000      0.0000000E+00
  -1.430000      0.0000000E+00
  -1.420000      0.0000000E+00
  -1.410000      0.0000000E+00
  -1.400000      0.0000000E+00
  -1.390000      0.0000000E+00
  -1.380000      0.0000000E+00
  -1.370000      0.0000000E+00
  -1.360000      0.0000000E+00
  -1.350000      0.0000000E+00
  -1.340000      0.0000000E+00
  -1.330000      0.0000000E+00
  -1.320000      0.0000000E+00
  -1.310000      0.0000000E+00
  -1.300000      0.0000000E+00
  -1.290000      0.0000000E+00
  -1.280000      0.0000000E+00
  -1.270000      0.0000000E+00
  -1.260000      0.0000000E+00
  -1.250000      0.0000000E+00
  -1.240000      0.0000000E+00
  -1.230000      0.0000000E+00
  -1.220000      0.0000000E+00
  -1.210000      0.0000000E+00
  -1.200000      0.0000000E+00
  -1.190000      0.0000000E+00
  -1.180000      0.0000000E+00
  -1.170000      0.0000000E+00
  -1.160000      0.0000000E+00
  -1.150000      0.0000000E+00
  -1.140000      0.0000000E+00
  -1.130000      0.0000000E+00
  -1.120000      0.0000000E+00
  -1.110000      0.0000000E+00
  -1.100000      0.0000000E+00
  -1.090000      0.0000000E+00
  -1.080000      0.0000000E+00
  -1.070000      0.0000000E+00
  -1.060000      0.0000000E+00
  -1.050000      0.0000000E+00
  -1.040000      0.0000000E+00
  -1.030000      0.0000000E+00
  -1.020000      0.0000000E+00
  -1.010000      0.0000000E+00
  -1.000000      0.0000000E+00
 -0.9900000      0.0000000E+00
 -0.9800000      0.0000000E+00
 -0.9700000      0.0000000E+00
 -0.9600000      0.0000000E+00
 -0.9500000      0.0000000E+00
 -0.9400000      0.0000000E+00
 -0.9300000      0.0000000E+00
 -0.9200000      0.0000000E+00
 -0.9100000      0.0000000E+00
 -0.9000000      0.0000000E+00
 -0.8900000      0.0000000E+00
 -0.8800000      0.0000000E+00
 -0.8700000      0.0000000E+00
 -0.8600000      0.0000000E+00
 -0.8500000      0.0000000E+00
 -0.8400000      0.0000000E+00
 -0.8300000      0.0000000E+00
 -0.8200000      0.0000000E+00
 -0.8100000      0.0000000E+00
 -0.8000000      0.0000000E+00
 -0.7900000      0.0000000E+00
 -0.7800000      0.0000000E+00
 -0.7700000      0.0000000E+00
 -0.7600000      0.0000000E+00
 -0.7500000      0.0000000E+00
 -0.7400000      0.0000000E+00
 -0.7300000      0.0000000E+00
 -0.7200000      0.0000000E+00
 -0.7100000      0.0000000E+00
 -0.7000000      0.0000000E+00
 -0.6900000      0.0000000E+00
 -0.6800000      0.0000000E+00
 -0.6700000      0.0000000E+00
 -0.6600000      0.0000000E+00
 -0.6500000      0.0000000E+00
 -0.6400000      0.0000000E+00
 -0.6300000      0.0000000E+00
 -0.6200000      0.0000000E+00
 -0.6100000      0.0000000E+00
 -0.6000000      0.0000000E+00
 -0.5900000      0.0000000E+00
 -0.5800000      0.0000000E+00
 -0.5700000      0.0000000E+00
 -0.5600000      0.0000000E+00
 -0.5500000      0.0000000E+00
 -0.5400000      0.0000000E+00
 -0.5300000      0.0000000E+00
 -0.5200000      0.0000000E+00
 -0.5100000      0.0000000E+00
 -0.5000000      0.0000000E+00
 -0.4900000      0.0000000E+00
 -0.4800000      0.0000000E+00
 -0.4700000      0.0000000E+00
 -0.4600000      0.0000000E+00
 -0.4500000      0.0000000E+00
 -0.4400000      0.0000000E+00
 -0.4300000      0.0000000E+00
 -0.4200000      0.0000000E+00
 -0.4100000      0.0000000E+00
 -0.4000000      0.0000000E+00
 -0.3900000      0.0000000E+00
 -0.3800000      0.0000000E+00
 -0.3700000      0.0000000E+00
 -0.3600000      0.0000000E+00
 -0.3500000      0.0000000E+00
 -0.3400000      0.0000000E+00
 -0.3300000      0.0000000E+00
 -0.3200000      0.0000000E+00
 -0.3100000      0.0000000E+00
 -0.3000000      0.0000000E+00
 -0.2900000      0.0000000E+00
 -0.2800000      0.0000000E+00
 -0.2700000      0.0000000E+00
 -0.2600000      0.0000000E+00
 -0.2500000      0.0000000E+00
 -0.2400000      0.0000000E+00
 -0.2300000      0.0000000E+00
 -0.2200000      0.0000000E+00
 -0.2100000      0.0000000E+00
 -0.2000000      0.0000000E+00
 -0.1900000      0.0000000E+00
 -0.1800000      0.0000000E+00
 -0.1700000      0.0000000E+00
 -0.1600000      0.0000000E+00
 -0.1500000      0.0000000E+00
 -0.1400000      0.0000000E+00
 -0.1300000      0.0000000E+00
 -0.1200000      0.0000000E+00
 -0.1100000      0.0000000E+00
 -0.1000000      0.0000000E+00
 -9.0000004E-02  0.0000000E+00
 -7.9999998E-02  0.0000000E+00
 -7.0000000E-02  0.0000000E+00
 -5.9999999E-02  0.0000000E+00
 -5.0000001E-02  0.0000000E+00
 -3.9999999E-02  0.0000000E+00
 -2.9999999E-02  0.0000000E+00
 -2.0000000E-02  0.0000000E+00
 -9.9999998E-03  0.0000000E+00
 -3.4694470E-17  0.0000000E+00
  9.9999998E-03  0.0000000E+00
  2.0000000E-02  0.0000000E+00
  2.9999999E-02  0.0000000E+00
  3.9999999E-02  0.0000000E+00
  5.0000001E-02  0.0000000E+00
  5.9999999E-02  0.0000000E+00
  7.0000000E-02  0.0000000E+00
  7.9999998E-02  0.0000000E+00
  9.0000004E-02  0.0000000E+00
  0.1000000      0.0000000E+00
  0.1100000      0.0000000E+00
  0.1200000      0.0000000E+00
  0.1300000      0.0000000E+00
  0.1400000      0.0000000E+00
  0.1500000      0.0000000E+00
  0.1600000      0.0000000E+00
  0.1700000      0.0000000E+00
  0.1800000      0.0000000E+00
  0.1900000      0.0000000E+00
  0.2000000      0.0000000E+00
  0.2100000      0.0000000E+00
  0.2200000      0.0000000E+00
  0.2300000      0.0000000E+00
  0.2400000      0.0000000E+00
  0.2500000      0.0000000E+00
  0.2600000      0.0000000E+00
  0.2700000      0.0000000E+00
  0.2800000      0.0000000E+00
  0.2900000      0.0000000E+00
  0.3000000      0.0000000E+00
  0.3100000      0.0000000E+00
  0.3200000      0.0000000E+00
  0.3300000      0.0000000E+00
  0.3400000      0.0000000E+00
  0.3500000      0.0000000E+00
  0.3600000      0.0000000E+00
  0.3700000      0.0000000E+00
  0.3800000      0.0000000E+00
  0.3900000      0.0000000E+00
  0.4000000      0.0000000E+00
  0.4100000      0.0000000E+00
  0.4200000      0.0000000E+00
  0.4300000      0.0000000E+00
  0.4400000      0.0000000E+00
  0.4500000      0.0000000E+00
  0.4600000      0.0000000E+00
  0.4700000      0.0000000E+00
  0.4800000      0.0000000E+00
  0.4900000      0.0000000E+00
  0.5000000      0.0000000E+00
  0.5100000      0.0000000E+00
  0.5200000      0.0000000E+00
  0.5300000      0.0000000E+00
  0.5400000      0.0000000E+00
  0.5500000      0.0000000E+00
  0.5600000      0.0000000E+00
  0.5700000      0.0000000E+00
  0.5800000      0.0000000E+00
  0.5900000      0.0000000E+00
  0.6000000      0.0000000E+00
  0.6100000      0.0000000E+00
  0.6200000      0.0000000E+00
  0.6300000      0.0000000E+00
  0.6400000      0.0000000E+00
  0.6500000      0.0000000E+00
  0.6600000      0.0000000E+00
  0.6700000      0.0000000E+00
  0.6800000      0.0000000E+00
  0.6900000      0.0000000E+00
  0.7000000      0.0000000E+00
  0.7100000      0.0000000E+00
  0.7200000      0.0000000E+00
  0.7300000      0.0000000E+00
  0.7400000      0.0000000E+00
  0.7500000      0.0000000E+00
  0.7600000      0.0000000E+00
  0.7700000      0.0000000E+00
  0.7800000      0.0000000E+00
  0.7900000      0.0000000E+00
  0.8000000      0.0000000E+00
  0.8100000      0.0000000E+00
  0.8200000      0.0000000E+00
  0.8300000      0.0000000E+00
  0.8400000      0.0000000E+00
  0.8500000      0.0000000E+00
  0.8600000      1.3311198E-38
  0.8700000      1.3387372E-38
  0.8800000      0.0000000E+00
  0.8900000      0.0000000E+00
  0.9000000      0.0000000E+00
  0.9100000      0.0000000E+00
  0.9200000     -1.3671527E-38
  0.9300000     -2.5612956E-38
  0.9400000     -3.8819403E-38
  0.9500000     -5.4746612E-38
  0.9600000     -7.3316272E-38
  0.9700000     -9.3474500E-38
  0.9800000     -1.1161647E-37
  0.9900000     -1.2624147E-37
   1.000000     -1.4090258E-37
   1.010000     -1.6108935E-37
   1.020000     -1.9833653E-37
   1.030000     -2.5107867E-37
   1.040000     -3.1052846E-37
   1.050000     -3.7451455E-37
   1.060000     -4.3217121E-37
   1.070000     -4.7813079E-37
   1.080000     -5.1842348E-37
   1.090000     -5.6361493E-37
   1.100000     -6.2667457E-37
   1.110000     -7.0350349E-37
   1.120000     -7.7970264E-37
   1.130000     -8.5609588E-37
   1.140000     -8.7251820E-37
   1.150000     -8.1824835E-37
   1.160000     -7.4778434E-37
   1.170000     -6.5052315E-37
   1.180000     -5.8171276E-37
   1.190000     -6.0085360E-37
   1.200000     -6.9858042E-37
   1.210000     -8.1155566E-37
   1.220000     -9.1469939E-37
   1.230000     -9.9354348E-37
   1.240000     -1.0515247E-36
   1.250000     -1.2502676E-36
   1.260000     -1.5596801E-36
   1.270000     -1.9316698E-36
   1.280000     -2.1120240E-36
   1.290000     -1.9401359E-36
   1.300000     -1.8969145E-36
   1.310000     -2.0431271E-36
   1.320000     -2.0456371E-36
   1.330000     -1.9598308E-36
   1.340000     -1.9072337E-36
   1.350000     -1.8128325E-36
   1.360000     -1.2408461E-36
   1.370000     -7.6596779E-38
   1.380000      1.2491853E-36
   1.390000      2.5921862E-36
   1.400000      3.9658503E-36
   1.410000      5.5252195E-36
   1.420000      7.2126257E-36
   1.430000      8.9275001E-36
   1.440000      1.0443136E-35
   1.450000      1.1872641E-35
   1.460000      1.3582372E-35
   1.470000      1.5696192E-35
   1.480000      1.8113814E-35
   1.490000      2.0525980E-35
   1.500000      2.2696486E-35
   1.510000      2.4637627E-35
   1.520000      2.6504017E-35
   1.530000      2.8210645E-35
   1.540000      3.0092334E-35
   1.550000      3.1896767E-35
   1.560000      3.3547771E-35
   1.570000      3.4931201E-35
   1.580000      3.5712061E-35
   1.590000      3.6051284E-35
   1.600000      3.5798220E-35
   1.610000      3.4903274E-35
   1.620000      3.3332023E-35
   1.630000      3.1262611E-35
   1.640000      2.8755752E-35
   1.650000      2.5599018E-35
   1.660000      2.1620307E-35
   1.670000      1.5465898E-35
   1.680000      5.6983115E-36
   1.690000     -6.7839268E-36
   1.700000     -2.1989091E-35
   1.710000     -3.9864592E-35
   1.720000     -5.9236134E-35
   1.730000     -7.9076309E-35
   1.740000     -9.9073993E-35
   1.750000     -1.1756609E-34
   1.760000     -1.3397201E-34
   1.770000     -1.5085468E-34
   1.780000     -1.6864796E-34
   1.790000     -1.8724308E-34
   1.800000     -2.0546023E-34
   1.810000     -2.2372472E-34
   1.820000     -2.3900342E-34
   1.830000     -2.5095039E-34
   1.840000     -2.6156072E-34
   1.850000     -2.7052299E-34
   1.860000     -2.7950822E-34
   1.870000     -2.8858839E-34
   1.880000     -2.9646468E-34
   1.890000     -2.9967513E-34
   1.900000     -2.9595329E-34
   1.910000     -2.8186697E-34
   1.920000     -2.6534450E-34
   1.930000     -2.6285746E-34
   1.940000     -2.6877667E-34
   1.950000     -2.7208419E-34
   1.960000     -2.7168356E-34
   1.970000     -2.6991701E-34
   1.980000     -2.6952680E-34
   1.990000     -2.6372255E-34
   2.000000     -2.4773172E-34
   2.010000     -2.1579801E-34
   2.020000     -1.7746233E-34
   2.030000     -1.4482282E-34
   2.040000     -1.0463587E-34
   2.050000     -3.8193126E-35
   2.060000      5.1391752E-35
   2.070000      1.5881597E-34
   2.080000      2.8643030E-34
   2.090000      4.3421673E-34
   2.100000      6.0177238E-34
   2.110000      7.8009139E-34
   2.120000      9.6564749E-34
   2.130000      1.1525100E-33
   2.140000      1.3373551E-33
   2.150000      1.5183162E-33
   2.160000      1.6900707E-33
   2.170000      1.8524535E-33
   2.180000      2.0077890E-33
   2.190000      2.1593097E-33
   2.200000      2.3103186E-33
   2.210000      2.4637478E-33
   2.220000      2.6225637E-33
   2.230000      2.7897695E-33
   2.240000      2.9628528E-33
   2.250000      3.1365418E-33
   2.260000      3.3083087E-33
   2.270000      3.4640996E-33
   2.280000      3.5978179E-33
   2.290000      3.7059759E-33
   2.300000      3.7753201E-33
   2.310000      3.7964548E-33
   2.320000      3.7665113E-33
   2.330000      3.6768541E-33
   2.340000      3.5235421E-33
   2.350000      3.3054571E-33
   2.360000      3.0208493E-33
   2.370000      2.6730462E-33
   2.380000      2.2664433E-33
   2.390000      1.8094149E-33
   2.400000      1.3014186E-33
   2.410000      7.4259945E-34
   2.420000      1.3205089E-34
   2.430000     -5.3364505E-34
   2.440000     -1.2597257E-33
   2.450000     -2.0523872E-33
   2.460000     -2.9197595E-33
   2.470000     -3.8653241E-33
   2.480000     -4.8921555E-33
   2.490000     -6.0042540E-33
   2.500000     -7.1996502E-33
   2.510000     -8.4722550E-33
   2.520000     -9.8151508E-33
   2.530000     -1.1218320E-32
   2.540000     -1.2666541E-32
   2.550000     -1.4143823E-32
   2.560000     -1.5633584E-32
   2.570000     -1.7119507E-32
   2.580000     -1.8585863E-32
   2.590000     -2.0018620E-32
   2.600000     -2.1405382E-32
   2.610000     -2.2734889E-32
   2.620000     -2.3996872E-32
   2.630000     -2.5181249E-32
   2.640000     -2.6277221E-32
   2.650000     -2.7272406E-32
   2.660000     -2.8151908E-32
   2.670000     -2.8897774E-32
   2.680000     -2.9488651E-32
   2.690000     -2.9899780E-32
   2.700000     -3.0103658E-32
   2.710000     -3.0070732E-32
   2.720000     -2.9770323E-32
   2.730000     -2.9171838E-32
   2.740000     -2.8246013E-32
   2.750000     -2.6965973E-32
   2.760000     -2.5307994E-32
   2.770000     -2.3252039E-32
   2.780000     -2.0781885E-32
   2.790000     -1.7884932E-32
   2.800000     -1.4551718E-32
   2.810000     -1.0775253E-32
   2.820000     -6.5502931E-33
   2.830000     -1.8726731E-33
   2.840000      3.2611394E-33
   2.850000      8.8542092E-33
   2.860000      1.4908948E-32
   2.870000      2.1426544E-32
   2.880000      2.8404522E-32
   2.890000      3.5840353E-32
   2.900000      4.3727029E-32
   2.910000      5.2048063E-32
   2.920000      6.0781392E-32
   2.930000      6.9897263E-32
   2.940000      7.9357300E-32
   2.950000      8.9114438E-32
   2.960000      9.9113205E-32
   2.970000      1.0929044E-31
   2.980000      1.1957602E-31
   2.990000      1.2989394E-31
   3.000000      1.4016318E-31
   3.010000      1.5029884E-31
   3.020000      1.6021250E-31
   3.030000      1.6981271E-31
   3.040000      1.7900489E-31
   3.050000      1.8769101E-31
   3.060000      1.9576907E-31
   3.070000      2.0313245E-31
   3.080000      2.0966999E-31
   3.090000      2.1526320E-31
   3.100000      2.1978768E-31
   3.110000      2.2311480E-31
   3.120000      2.2511015E-31
   3.130000      2.2563536E-31
   3.140000      2.2454947E-31
   3.150000      2.2171088E-31
   3.160000      2.1697931E-31
   3.170000      2.1021782E-31
   3.180000      2.0129485E-31
   3.190000      1.9008609E-31
   3.200000      1.7647587E-31
   3.210000      1.6035842E-31
   3.220000      1.4163878E-31
   3.230000      1.2023343E-31
   3.240000      9.6070697E-32
   3.250000      6.9091262E-32
   3.260000      3.9248713E-32
   3.270000      6.5103168E-33
   3.280000     -2.9142024E-32
   3.290000     -6.7710303E-32
   3.300000     -1.0917858E-31
   3.310000     -1.5351089E-31
   3.320000     -2.0064899E-31
   3.330000     -2.5050977E-31
   3.340000     -3.0298299E-31
   3.350000     -3.5792907E-31
   3.360000     -4.1517718E-31
   3.370000     -4.7452379E-31
   3.380000     -5.3573183E-31
   3.390000     -5.9853008E-31
   3.400000     -6.6261333E-31
   3.410000     -7.2764281E-31
   3.420000     -7.9324663E-31
   3.430000     -8.5902061E-31
   3.440000     -9.2452941E-31
   3.450000     -9.8930639E-31
   3.460000     -1.0528552E-30
   3.470000     -1.1146496E-30
   3.480000     -1.1741336E-30
   3.490000     -1.2307221E-30
   3.500000     -1.2838007E-30
   3.510000     -1.3327273E-30
   3.520000     -1.3768316E-30
   3.530000     -1.4154182E-30
   3.540000     -1.4477673E-30
   3.550000     -1.4731389E-30
   3.560000     -1.4907755E-30
   3.570000     -1.4999064E-30
   3.580000     -1.4997533E-30
   3.590000     -1.4895352E-30
   3.600000     -1.4684741E-30
   3.610000     -1.4358011E-30
   3.620000     -1.3907629E-30
   3.630000     -1.3326278E-30
   3.640000     -1.2606912E-30
   3.650000     -1.1742821E-30
   3.660000     -1.0727693E-30
   3.670000     -9.5556697E-31
   3.680000     -8.2214113E-31
   3.690000     -6.7201663E-31
   3.700000     -5.0478351E-31
   3.710000     -3.2010467E-31
   3.720000     -1.1772335E-31
   3.730000      1.0252863E-31
   3.740000      3.4072219E-31
   3.750000      5.9682190E-31
   3.760000      8.7067738E-31
   3.770000      1.1620140E-30
   3.780000      1.4704239E-30
   3.790000      1.7953585E-30
   3.800000      2.1361194E-30
   3.810000      2.4918528E-30
   3.820000      2.8615409E-30
   3.830000      3.2439973E-30
   3.840000      3.6378620E-30
   3.850000      4.0415956E-30
   3.860000      4.4534756E-30
   3.870000      4.8715924E-30
   3.880000      5.2938458E-30
   3.890000      5.7179434E-30
   3.900000      6.1413964E-30
   3.910000      6.5615184E-30
   3.920000      6.9754234E-30
   3.930000      7.3800266E-30
   3.940000      7.7720459E-30
   3.950000      8.1480017E-30
   3.960000      8.5042235E-30
   3.970000      8.8368527E-30
   3.980000      9.1418530E-30
   3.990000      9.4150191E-30
   4.000000      9.6519852E-30
   4.010000      9.8482435E-30
   4.020000      9.9991537E-30
   4.030000      1.0099967E-29
   4.040000      1.0145838E-29
   4.050000      1.0131852E-29
   4.060000      1.0053039E-29
   4.070000      9.9044085E-30
   4.080000      9.6809645E-30
   4.090000      9.3777396E-30
   4.100000      8.9898174E-30
   4.110000      8.5123689E-30
   4.120000      7.9406799E-30
   4.130000      7.2701862E-30
   4.140000      6.4965093E-30
   4.150000      5.6154964E-30
   4.160000      4.6232592E-30
   4.170000      3.5162158E-30
   4.180000      2.2911361E-30
   4.190000      9.4518642E-31
   4.200000     -5.2402330E-31
   4.210000     -2.1183939E-30
   4.220000     -3.8392864E-30
   4.230000     -5.6874686E-30
   4.240000     -7.6630706E-30
   4.250000     -9.7655293E-30
   4.260000     -1.1993534E-29
   4.270000     -1.4344985E-29
   4.280000     -1.6816936E-29
   4.290000     -1.9405544E-29
   4.300000     -2.2106015E-29
   4.310000     -2.4912561E-29
   4.320000     -2.7818340E-29
   4.330000     -3.0815415E-29
   4.340000     -3.3894703E-29
   4.350000     -3.7045934E-29
   4.360000     -4.0257599E-29
   4.370000     -4.3516914E-29
   4.380000     -4.6809797E-29
   4.390000     -5.0120816E-29
   4.400000     -5.3433175E-29
   4.410000     -5.6728676E-29
   4.420000     -5.9987722E-29
   4.430000     -6.3189292E-29
   4.440000     -6.6310936E-29
   4.450000     -6.9328796E-29
   4.460000     -7.2217576E-29
   4.470000     -7.4950603E-29
   4.480000     -7.7499818E-29
   4.490000     -7.9835803E-29
   4.500000     -8.1927838E-29
   4.510000     -8.3743972E-29
   4.520000     -8.5251000E-29
   4.530000     -8.6414611E-29
   4.540000     -8.7199409E-29
   4.550000     -8.7569043E-29
   4.560000     -8.7486271E-29
   4.570000     -8.6913066E-29
   4.580000     -8.5810754E-29
   4.590000     -8.4140166E-29
   4.600000     -8.1861731E-29
   4.610000     -7.8935683E-29
   4.620000     -7.5322229E-29
   4.630000     -7.0981701E-29
   4.640000     -6.5874803E-29
   4.650000     -5.9962788E-29
   4.660000     -5.3207715E-29
   4.670000     -4.5572687E-29
   4.680000     -3.7022121E-29
   4.690000     -2.7521981E-29
   4.700000     -1.7040097E-29
   4.710000     -5.5464665E-30
   4.720000      6.9864365E-30
   4.730000      2.0583375E-29
   4.740000      3.5265968E-29
   4.750000      5.1052346E-29
   4.760000      6.7956787E-29
   4.770000      8.5989317E-29
   4.780000      1.0515540E-28
   4.790000      1.2545547E-28
   4.800000      1.4688456E-28
   4.810000      1.6943189E-28
   4.820000      1.9308052E-28
   4.830000      2.1780688E-28
   4.840000      2.4358030E-28
   4.850000      2.7036267E-28
   4.860000      2.9810803E-28
   4.870000      3.2676201E-28
   4.880000      3.5626170E-28
   4.890000      3.8653493E-28
   4.900000      4.1750011E-28
   4.910000      4.4906571E-28
   4.920000      4.8112994E-28
   4.930000      5.1358037E-28
   4.940000      5.4629364E-28
   4.950000      5.7913508E-28
   4.960000      6.1195851E-28
   4.970000      6.4460567E-28
   4.980000      6.7690626E-28
   4.990000      7.0867765E-28
   5.000000      7.3972470E-28
   5.010000      7.6983960E-28
   5.020000      7.9880188E-28
   5.030000      8.2637831E-28
   5.040000      8.5232270E-28
   5.050000      8.7637641E-28
   5.060000      8.9826817E-28
   5.070000      9.1771409E-28
   5.080000      9.3441855E-28
   5.090000      9.4807387E-28
   5.100000      9.5836133E-28
   5.110000      9.6495109E-28
   5.120000      9.6750343E-28
   5.130000      9.6566888E-28
   5.140000      9.5908923E-28
   5.150000      9.4739807E-28
   5.160000      9.3022253E-28
   5.170000      9.0718349E-28
   5.180000      8.7789713E-28
   5.190000      8.4197642E-28
   5.200000      7.9903237E-28
   5.210000      7.4867513E-28
   5.220000      6.9051604E-28
   5.230000      6.2416972E-28
   5.240000      5.4925558E-28
   5.250000      4.6539967E-28
   5.260000      3.7223702E-28
   5.270000      2.6941430E-28
   5.280000      1.5659163E-28
   5.290000      3.3445775E-29
   5.300000     -1.0032758E-28
   5.310000     -2.4501137E-28
   5.320000     -4.0086344E-28
   5.330000     -5.6811361E-28
   5.340000     -7.4696105E-28
   5.350000     -9.3757024E-28
   5.360000     -1.1400678E-27
   5.370000     -1.3545392E-27
   5.380000     -1.5810244E-27
   5.390000     -1.8195150E-27
   5.400000     -2.0699494E-27
   5.410000     -2.3322105E-27
   5.420000     -2.6061189E-27
   5.430000     -2.8914316E-27
   5.440000     -3.1878353E-27
   5.450000     -3.4949450E-27
   5.460000     -3.8122974E-27
   5.470000     -4.1393481E-27
   5.480000     -4.4754664E-27
   5.490000     -4.8199332E-27
   5.500000     -5.1719343E-27
   5.510000     -5.5305582E-27
   5.520000     -5.8947908E-27
   5.530000     -6.2635136E-27
   5.540000     -6.6354981E-27
   5.550000     -7.0094051E-27
   5.560000     -7.3837774E-27
   5.570000     -7.7570380E-27
   5.580000     -8.1274914E-27
   5.590000     -8.4933156E-27
   5.600000     -8.8525624E-27
   5.610000     -9.2031548E-27
   5.620000     -9.5428850E-27
   5.630000     -9.8694164E-27
   5.640000     -1.0180281E-26
   5.650000     -1.0472877E-26
   5.660000     -1.0744474E-26
   5.670000     -1.0992212E-26
   5.680000     -1.1213101E-26
   5.690000     -1.1404025E-26
   5.700000     -1.1561749E-26
   5.710000     -1.1682912E-26
   5.720000     -1.1764042E-26
   5.730000     -1.1801559E-26
   5.740000     -1.1791778E-26
   5.750000     -1.1730922E-26
   5.760000     -1.1615122E-26
   5.770000     -1.1440438E-26
   5.780000     -1.1202854E-26
   5.790000     -1.0898306E-26
   5.800000     -1.0522679E-26
   5.810000     -1.0071829E-26
   5.820000     -9.5415985E-27
   5.830000     -8.9278316E-27
   5.840000     -8.2263840E-27
   5.850000     -7.4331513E-27
   5.860000     -6.5440850E-27
   5.870000     -5.5552109E-27
   5.880000     -4.4626547E-27
   5.890000     -3.2626648E-27
   5.900000     -1.9516378E-27
   5.910000     -5.2614480E-28
   5.920000      1.0170408E-27
   5.930000      2.6809180E-27
   5.940000      4.4682291E-27
   5.950000      6.3814264E-27
   5.960000      8.4226378E-27
   5.970000      1.0593632E-26
   5.980000      1.2895788E-26
   5.990000      1.5330051E-26
   6.000000      1.7896904E-26
   6.010000      2.0596332E-26
   6.020000      2.3427781E-26
   6.030000      2.6390112E-26
   6.040000      2.9481562E-26
   6.050000      3.2699711E-26
   6.060000      3.6041434E-26
   6.070000      3.9502875E-26
   6.080000      4.3079389E-26
   6.090000      4.6765505E-26
   6.100000      5.0554894E-26
   6.110000      5.4440308E-26
   6.120000      5.8413578E-26
   6.130000      6.2465519E-26
   6.140000      6.6585956E-26
   6.150000      7.0763615E-26
   6.160000      7.4986159E-26
   6.170000      7.9240104E-26
   6.180000      8.3510831E-26
   6.190000      8.7782506E-26
   6.200000      9.2038109E-26
   6.210000      9.6259359E-26
   6.220000      1.0042673E-25
   6.230000      1.0451942E-25
   6.240000      1.0851535E-25
   6.250000      1.1239115E-25
   6.260000      1.1612211E-25
   6.270000      1.1968227E-25
   6.280000      1.2304433E-25
   6.290000      1.2617972E-25
   6.300000      1.2905863E-25
   6.310000      1.3164999E-25
   6.320000      1.3392153E-25
   6.330000      1.3583976E-25
   6.340000      1.3737014E-25
   6.350000      1.3847699E-25
   6.360000      1.3912362E-25
   6.370000      1.3927242E-25
   6.380000      1.3888488E-25
   6.390000      1.3792173E-25
   6.400000      1.3634301E-25
   6.410000      1.3410818E-25
   6.420000      1.3117624E-25
   6.430000      1.2750587E-25
   6.440000      1.2305551E-25
   6.450000      1.1778354E-25
   6.460000      1.1164846E-25
   6.470000      1.0460901E-25
   6.480000      9.6624448E-26
   6.490000      8.7654618E-26
   6.500000      7.7660207E-26
   6.510000      6.6603015E-26
   6.520000      5.4446070E-26
   6.530000      4.1153964E-26
   6.540000      2.6693044E-26
   6.550000      1.1031678E-26
   6.560000     -5.8594377E-27
   6.570000     -2.4007046E-26
   6.580000     -4.3435020E-26
   6.590000     -6.4164054E-26
   6.600000     -8.6211428E-26
   6.610000     -1.0959063E-25
   6.620000     -1.3431099E-25
   6.630000     -1.6037742E-25
   6.640000     -1.8779004E-25
   6.650000     -2.1654387E-25
   6.660000     -2.4662849E-25
   6.670000     -2.7802764E-25
   6.680000     -3.1071890E-25
   6.690000     -3.4467337E-25
   6.700000     -3.7985516E-25
   6.710000     -4.1622116E-25
   6.720000     -4.5372065E-25
   6.730000     -4.9229496E-25
   6.740000     -5.3187729E-25
   6.750000     -5.7239210E-25
   6.760000     -6.1375494E-25
   6.770000     -6.5587227E-25
   6.780000     -6.9864086E-25
   6.790000     -7.4194779E-25
   6.800000     -7.8567001E-25
   6.810000     -8.2967410E-25
   6.820000     -8.7381610E-25
   6.830000     -9.1794113E-25
   6.840000     -9.6188354E-25
   6.850000     -1.0054666E-24
   6.860000     -1.0485024E-24
   6.870000     -1.0907917E-24
   6.880000     -1.1321240E-24
   6.890000     -1.1722774E-24
   6.900000     -1.2110189E-24
   6.910000     -1.2481045E-24
   6.920000     -1.2832785E-24
   6.930000     -1.3162751E-24
   6.940000     -1.3468174E-24
   6.950000     -1.3746181E-24
   6.960000     -1.3993803E-24
   6.970000     -1.4207969E-24
   6.980000     -1.4385521E-24
   6.990000     -1.4523213E-24
   7.000000     -1.4617720E-24
   7.010000     -1.4665642E-24
   7.020000     -1.4663517E-24
   7.030000     -1.4607824E-24
   7.040000     -1.4494991E-24
   7.050000     -1.4321415E-24
   7.060000     -1.4083459E-24