  -2.600000      0.0000000E+00
  -2.590000      0.0000000E+00
  -2.580000      0.0000000E+00
  -2.570000      0.0000000E+00
  -2.560000      0.0000000E+00
  -2.550000      0.0000000E+00
  -2.540000      0.0000000E+00
  -2.530000      0.0000000E+00
  -2.520000      0.0000000E+00
  -2.510000      0.0000000E+00
  -2.500000      0.0000000E+00
  -2.490000      0.0000000E+00
  -2.480000      0.0000000E+00
  -2.470000      0.0000000E+00
  -2.460000      0.0000000E+00
  -2.450000      0.0000000E+00
  -2.440000      0.0000000E+00
  -2.430000      0.0000000E+00
  -2.420000      0.0000000E+00
  -2.410000      0.0000000E+00
  -2.400000      0.0000000E+00
  -2.390000      0.0000000E+00
  -2.380000      0.0000000E+00
  -2.370000      0.0000000E+00
  -2.360000      0.0000000E+00
  -2.350000      0.0000000E+00
  -2.340000      0.0000000E+00
  -2.330000      0.0000000E+00
  -2.320000      0.0000000E+00
  -2.310000      0.0000000E+00
  -2.300000      0.0000000E+00
  -2.290000      0.0000000E+00
  -2.280000      0.0000000E+00
  -2.270000      0.0000000E+00
  -2.260000      0.0000000E+00
  -2.250000      0.0000000E+00
  -2.240000      0.0000000E+00
  -2.230000      0.0000000E+00
  -2.220000      0.0000000E+00
  -2.210000      0.0000000E+00
  -2.200000      0.0000000E+00
  -2.190000      0.0000000E+00
  -2.180000      0.0000000E+00
  -2.170000      0.0000000E+00
  -2.160000      0.0000000E+00
  -2.150000      0.0000000E+00
  -2.140000      0.0000000E+00
  -2.130000      0.0000000E+00
  -2.120000      0.0000000E+00
  -2.110000      0.0000000E+00
  -2.100000      0.0000000E+00
  -2.090000      0.0000000E+00
  -2.080000      0.0000000E+00
  -2.070000      0.0000000E+00
  -2.060000      0.0000000E+00
  -2.050000      0.0000000E+00
  -2.040000      0.0000000E+00
  -2.030000      0.0000000E+00
  -2.020000      0.0000000E+00
  -2.010000      0.0000000E+00
  -2.000000      0.0000000E+00
  -1.990000      0.0000000E+00
  -1.980000      0.0000000E+00
  -1.970000      0.0000000E+00
  -1.960000      0.0000000E+00
  -1.950000      0.0000000E+00
  -1.940000      0.0000000E+00
  -1.930000      0.0000000E+00
  -1.920000      0.0000000E+00
  -1.910000      0.0000000E+00
  -1.900000      0.0000000E+00
  -1.890000      0.0000000E+00
  -1.880000      0.0000000E+00
  -1.870000      0.0000000E+00
  -1.860000      0.0000000E+00
  -1.850000      0.0000000E+00
  -1.840000      0.0000000E+00
  -1.830000      0.0000000E+00
  -1.820000      0.0000000E+00
  -1.810000      0.0000000E+00
  -1.800000      0.0000000E+00
  -1.790000      0.0000000E+00
  -1.780000      0.0000000E+00
  -1.770000      0.0000000E+00
  -1.760000      0.0000000E+00
  -1.750000      0.0000000E+00
  -1.740000      0.0000000E+00
  -1.730000      0.0000000E+00
  -1.720000      0.0000000E+00
  -1.710000      0.0000000E+00
  -1.700000      0.0000000E+00
  -1.690000      0.0000000E+00
  -1.680000      0.0000000E+00
  -1.670000      0.0000000E+00
  -1.660000      0.0000000E+00
  -1.650000      0.0000000E+00
  -1.640000      0.0000000E+00
  -1.630000      0.0000000E+00
  -1.620000      0.0000000E+00
  -1.610000      0.0000000E+00
  -1.600000      0.0000000E+00
  -1.590000      0.0000000E+00
  -1.580000      0.0000000E+00
  -1.570000      0.0000000E+00
  -1.560000      0.0000000E+00
  -1.550000      0.0000000E+00
  -1.540000      0.0000000E+00
  -1.530000      0.0000000E+00
  -1.520000      0.0000000E+00
  -1.510000      0.0000000E+00
  -1.500000      0.0000000E+00
  -1.490000      0.0000000E+00
  -1.480000      0.0000000E+00
  -1.470000      0.0000000E+00
  -1.460000      0.0000000E+00
  -1.450000      0.0000000E+00
  -1.440000      0.0000000E+00
  -1.430000      0.0000000E+00
  -1.420000      0.0000000E+00
  -1.410000      0.0000000E+00
  -1.400000      0.0000000E+00
  -1.390000      0.0000000E+00
  -1.380000      0.0000000E+00
  -1.370000      0.0000000E+00
  -1.360000      0.0000000E+00
  -1.350000      0.0000000E+00
  -1.340000      0.0000000E+00
  -1.330000      0.0000000E+00
  -1.320000      0.0000000E+00
  -1.310000      0.0000000E+00
  -1.300000      0.0000000E+00
  -1.290000      0.0000000E+00
  -1.280000      0.0000000E+00
  -1.270000      0.0000000E+00
  -1.260000      0.0000000E+00
  -1.250000      0.0000000E+00
  -1.240000      0.0000000E+00
  -1.230000      0.0000000E+00
  -1.220000      0.0000000E+00
  -1.210000      0.0000000E+00
  -1.200000      0.0000000E+00
  -1.190000      0.0000000E+00
  -1.180000      0.0000000E+00
  -1.170000      0.0000000E+00
  -1.160000      0.0000000E+00
  -1.150000      0.0000000E+00
  -1.140000      0.0000000E+00
  -1.130000      0.0000000E+00
  -1.120000      0.0000000E+00
  -1.110000      0.0000000E+00
  -1.100000      0.0000000E+00
  -1.090000      0.0000000E+00
  -1.080000      0.0000000E+00
  -1.070000      0.0000000E+00
  -1.060000      0.0000000E+00
  -1.050000      0.0000000E+00
  -1.040000      0.0000000E+00
  -1.030000      0.0000000E+00
  -1.020000      0.0000000E+00
  -1.010000      0.0000000E+00
  -1.000000      0.0000000E+00
 -0.9900000      0.0000000E+00
 -0.9800000      0.0000000E+00
 -0.9700000      0.0000000E+00
 -0.9600000      0.0000000E+00
 -0.9500000      0.0000000E+00
 -0.9400000      0.0000000E+00
 -0.9300000      0.0000000E+00
 -0.9200000      0.0000000E+00
 -0.9100000      0.0000000E+00
 -0.9000000      0.0000000E+00
 -0.8900000      0.0000000E+00
 -0.8800000      0.0000000E+00
 -0.8700000      0.0000000E+00
 -0.8600000      0.0000000E+00
 -0.8500000      0.0000000E+00
 -0.8400000      0.0000000E+00
 -0.8300000      0.0000000E+00
 -0.8200000      0.0000000E+00
 -0.8100000      0.0000000E+00
 -0.8000000      0.0000000E+00
 -0.7900000      0.0000000E+00
 -0.7800000      0.0000000E+00
 -0.7700000      0.0000000E+00
 -0.7600000      0.0000000E+00
 -0.7500000      0.0000000E+00
 -0.7400000      0.0000000E+00
 -0.7300000      0.0000000E+00
 -0.7200000      0.0000000E+00
 -0.7100000      0.0000000E+00
 -0.7000000      0.0000000E+00
 -0.6900000      0.0000000E+00
 -0.6800000      0.0000000E+00
 -0.6700000      0.0000000E+00
 -0.6600000      0.0000000E+00
 -0.6500000      0.0000000E+00
 -0.6400000      0.0000000E+00
 -0.6300000      0.0000000E+00
 -0.6200000      0.0000000E+00
 -0.6100000      0.0000000E+00
 -0.6000000      0.0000000E+00
 -0.5900000      0.0000000E+00
 -0.5800000      0.0000000E+00
 -0.5700000      0.0000000E+00
 -0.5600000      0.0000000E+00
 -0.5500000      0.0000000E+00
 -0.5400000      0.0000000E+00
 -0.5300000      0.0000000E+00
 -0.5200000      0.0000000E+00
 -0.5100000      0.0000000E+00
 -0.5000000      0.0000000E+00
 -0.4900000      0.0000000E+00
 -0.4800000      0.0000000E+00
 -0.4700000      0.0000000E+00
 -0.4600000      0.0000000E+00
 -0.4500000      0.0000000E+00
 -0.4400000      0.0000000E+00
 -0.4300000      0.0000000E+00
 -0.4200000      0.0000000E+00
 -0.4100000      0.0000000E+00
 -0.4000000      0.0000000E+00
 -0.3900000      0.0000000E+00
 -0.3800000      0.0000000E+00
 -0.3700000      0.0000000E+00
 -0.3600000      0.0000000E+00
 -0.3500000      0.0000000E+00
 -0.3400000      0.0000000E+00
 -0.3300000      0.0000000E+00
 -0.3200000      0.0000000E+00
 -0.3100000      0.0000000E+00
 -0.3000000      0.0000000E+00
 -0.2900000      0.0000000E+00
 -0.2800000      0.0000000E+00
 -0.2700000      0.0000000E+00
 -0.2600000      0.0000000E+00
 -0.2500000      0.0000000E+00
 -0.2400000      0.0000000E+00
 -0.2300000      0.0000000E+00
 -0.2200000      0.0000000E+00
 -0.2100000      0.0000000E+00
 -0.2000000      0.0000000E+00
 -0.1900000      0.0000000E+00
 -0.1800000      0.0000000E+00
 -0.1700000      0.0000000E+00
 -0.1600000      0.0000000E+00
 -0.1500000      0.0000000E+00
 -0.1400000      0.0000000E+00
 -0.1300000      0.0000000E+00
 -0.1200000      0.0000000E+00
 -0.1100000      0.0000000E+00
 -0.1000000      0.0000000E+00
 -9.0000004E-02  0.0000000E+00
 -7.9999998E-02  0.0000000E+00
 -7.0000000E-02  0.0000000E+00
 -5.9999999E-02  0.0000000E+00
 -5.0000001E-02  0.0000000E+00
 -3.9999999E-02  0.0000000E+00
 -2.9999999E-02  0.0000000E+00
 -2.0000000E-02  0.0000000E+00
 -9.9999998E-03  0.0000000E+00
 -3.4694470E-17  0.0000000E+00
  9.9999998E-03  0.0000000E+00
  2.0000000E-02  0.0000000E+00
  2.9999999E-02  0.0000000E+00
  3.9999999E-02  0.0000000E+00
  5.0000001E-02  0.0000000E+00
  5.9999999E-02  0.0000000E+00
  7.0000000E-02  0.0000000E+00
  7.9999998E-02  0.0000000E+00
  9.0000004E-02  0.0000000E+00
  0.1000000      0.0000000E+00
  0.1100000      0.0000000E+00
  0.1200000      0.0000000E+00
  0.1300000      0.0000000E+00
  0.1400000      0.0000000E+00
  0.1500000      0.0000000E+00
  0.1600000      0.0000000E+00
  0.1700000      0.0000000E+00
  0.1800000      0.0000000E+00
  0.1900000      0.0000000E+00
  0.2000000      0.0000000E+00
  0.2100000      0.0000000E+00
  0.2200000      0.0000000E+00
  0.2300000      0.0000000E+00
  0.2400000      0.0000000E+00
  0.2500000      0.0000000E+00
  0.2600000      0.0000000E+00
  0.2700000      0.0000000E+00
  0.2800000      0.0000000E+00
  0.2900000      0.0000000E+00
  0.3000000      0.0000000E+00
  0.3100000      0.0000000E+00
  0.3200000      0.0000000E+00
  0.3300000      0.0000000E+00
  0.3400000      0.0000000E+00
  0.3500000      0.0000000E+00
  0.3600000      0.0000000E+00
  0.3700000      0.0000000E+00
  0.3800000      0.0000000E+00
  0.3900000      0.0000000E+00
  0.4000000      0.0000000E+00
  0.4100000      0.0000000E+00
  0.4200000      0.0000000E+00
  0.4300000      0.0000000E+00
  0.4400000      0.0000000E+00
  0.4500000      0.0000000E+00
  0.4600000      0.0000000E+00
  0.4700000      0.0000000E+00
  0.4800000      0.0000000E+00
  0.4900000      0.0000000E+00
  0.5000000      0.0000000E+00
  0.5100000      0.0000000E+00
  0.5200000      0.0000000E+00
  0.5300000      0.0000000E+00
  0.5400000      0.0000000E+00
  0.5500000      0.0000000E+00
  0.5600000      0.0000000E+00
  0.5700000      0.0000000E+00
  0.5800000      0.0000000E+00
  0.5900000      0.0000000E+00
  0.6000000      0.0000000E+00
  0.6100000      0.0000000E+00
  0.6200000      0.0000000E+00
  0.6300000      0.0000000E+00
  0.6400000      0.0000000E+00
  0.6500000      0.0000000E+00
  0.6600000      0.0000000E+00
  0.6700000      0.0000000E+00
  0.6800000      0.0000000E+00
  0.6900000      0.0000000E+00
  0.7000000      0.0000000E+00
  0.7100000      0.0000000E+00
  0.7200000      0.0000000E+00
  0.7300000      0.0000000E+00
  0.7400000      0.0000000E+00
  0.7500000      0.0000000E+00
  0.7600000      0.0000000E+00
  0.7700000      0.0000000E+00
  0.7800000      0.0000000E+00
  0.7900000      0.0000000E+00
  0.8000000      0.0000000E+00
  0.8100000      0.0000000E+00
  0.8200000      0.0000000E+00
  0.8300000      0.0000000E+00
  0.8400000      0.0000000E+00
  0.8500000      0.0000000E+00
  0.8600000      0.0000000E+00
  0.8700000      0.0000000E+00
  0.8800000      0.0000000E+00
  0.8900000      0.0000000E+00
  0.9000000      0.0000000E+00
  0.9100000      0.0000000E+00
  0.9200000      0.0000000E+00
  0.9300000      0.0000000E+00
  0.9400000      0.0000000E+00
  0.9500000      0.0000000E+00
  0.9600000      0.0000000E+00
  0.9700000      0.0000000E+00
  0.9800000      0.0000000E+00
  0.9900000      0.0000000E+00
   1.000000      0.0000000E+00
   1.010000      0.0000000E+00
   1.020000      0.0000000E+00
   1.030000      0.0000000E+00
   1.040000      0.0000000E+00
   1.050000      0.0000000E+00
   1.060000      0.0000000E+00
   1.070000      0.0000000E+00
   1.080000      0.0000000E+00
   1.090000      0.0000000E+00
   1.100000      0.0000000E+00
   1.110000      0.0000000E+00
   1.120000      0.0000000E+00
   1.130000      0.0000000E+00
   1.140000      0.0000000E+00
   1.150000      0.0000000E+00
   1.160000      0.0000000E+00
   1.170000      0.0000000E+00
   1.180000      0.0000000E+00
   1.190000      0.0000000E+00
   1.200000      0.0000000E+00
   1.210000      0.0000000E+00
   1.220000      0.0000000E+00
   1.230000      0.0000000E+00
   1.240000      0.0000000E+00
   1.250000      0.0000000E+00
   1.260000      0.0000000E+00
   1.270000      0.0000000E+00
   1.280000      0.0000000E+00
   1.290000      0.0000000E+00
   1.300000      0.0000000E+00
   1.310000      0.0000000E+00
   1.320000      0.0000000E+00
   1.330000      0.0000000E+00
   1.340000      0.0000000E+00
   1.350000      0.0000000E+00
   1.360000      0.0000000E+00
   1.370000      0.0000000E+00
   1.380000      0.0000000E+00
   1.390000      0.0000000E+00
   1.400000      0.0000000E+00
   1.410000      0.0000000E+00
   1.420000      0.0000000E+00
   1.430000      0.0000000E+00
   1.440000      0.0000000E+00
   1.450000      0.0000000E+00
   1.460000      0.0000000E+00
   1.470000      0.0000000E+00
   1.480000      0.0000000E+00
   1.490000      0.0000000E+00
   1.500000      0.0000000E+00
   1.510000      0.0000000E+00
   1.520000      0.0000000E+00
   1.530000      0.0000000E+00
   1.540000      0.0000000E+00
   1.550000      0.0000000E+00
   1.560000      0.0000000E+00
   1.570000      0.0000000E+00
   1.580000      0.0000000E+00
   1.590000      0.0000000E+00
   1.600000      0.0000000E+00
   1.610000      0.0000000E+00
   1.620000      0.0000000E+00
   1.630000      0.0000000E+00
   1.640000      0.0000000E+00
   1.650000      0.0000000E+00
   1.660000      0.0000000E+00
   1.670000      0.0000000E+00
   1.680000      0.0000000E+00
   1.690000      0.0000000E+00
   1.700000      0.0000000E+00
   1.710000      0.0000000E+00
   1.720000      0.0000000E+00
   1.730000      0.0000000E+00
   1.740000      0.0000000E+00
   1.750000      0.0000000E+00
   1.760000      0.0000000E+00
   1.770000      0.0000000E+00
   1.780000      0.0000000E+00
   1.790000      0.0000000E+00
   1.800000      0.0000000E+00
   1.810000      0.0000000E+00
   1.820000      0.0000000E+00
   1.830000      0.0000000E+00
   1.840000      0.0000000E+00
   1.850000      0.0000000E+00
   1.860000      0.0000000E+00
   1.870000      0.0000000E+00
   1.880000      0.0000000E+00
   1.890000      0.0000000E+00
   1.900000      0.0000000E+00
   1.910000      0.0000000E+00
   1.920000      0.0000000E+00
   1.930000      0.0000000E+00
   1.940000      0.0000000E+00
   1.950000      0.0000000E+00
   1.960000      0.0000000E+00
   1.970000      0.0000000E+00
   1.980000      0.0000000E+00
   1.990000      0.0000000E+00
   2.000000      0.0000000E+00
   2.010000      0.0000000E+00
   2.020000      0.0000000E+00
   2.030000      0.0000000E+00
   2.040000      0.0000000E+00
   2.050000      0.0000000E+00
   2.060000      0.0000000E+00
   2.070000      0.0000000E+00
   2.080000      0.0000000E+00
   2.090000      0.0000000E+00
   2.100000      0.0000000E+00
   2.110000      0.0000000E+00
   2.120000      0.0000000E+00
   2.130000      0.0000000E+00
   2.140000      0.0000000E+00
   2.150000      0.0000000E+00
   2.160000      0.0000000E+00
   2.170000      0.0000000E+00
   2.180000      0.0000000E+00
   2.190000      0.0000000E+00
   2.200000      0.0000000E+00
   2.210000      0.0000000E+00
   2.220000      0.0000000E+00
   2.230000      0.0000000E+00
   2.240000      0.0000000E+00
   2.250000      0.0000000E+00
   2.260000      0.0000000E+00
   2.270000      0.0000000E+00
   2.280000      0.0000000E+00
   2.290000      0.0000000E+00
   2.300000      0.0000000E+00
   2.310000      0.0000000E+00
   2.320000      0.0000000E+00
   2.330000      0.0000000E+00
   2.340000      0.0000000E+00
   2.350000      0.0000000E+00
   2.360000      0.0000000E+00
   2.370000      0.0000000E+00
   2.380000      0.0000000E+00
   2.390000      0.0000000E+00
   2.400000      0.0000000E+00
   2.410000      0.0000000E+00
   2.420000      0.0000000E+00
   2.430000      0.0000000E+00
   2.440000      0.0000000E+00
   2.450000      0.0000000E+00
   2.460000      0.0000000E+00
   2.470000      0.0000000E+00
   2.480000      0.0000000E+00
   2.490000      0.0000000E+00
   2.500000      0.0000000E+00
   2.510000      0.0000000E+00
   2.520000      0.0000000E+00
   2.530000      0.0000000E+00
   2.540000      0.0000000E+00
   2.550000      0.0000000E+00
   2.560000      0.0000000E+00
   2.570000      0.0000000E+00
   2.580000      0.0000000E+00
   2.590000      0.0000000E+00
   2.600000      0.0000000E+00
   2.610000      0.0000000E+00
   2.620000      0.0000000E+00
   2.630000      0.0000000E+00
   2.640000      0.0000000E+00
   2.650000      0.0000000E+00
   2.660000      0.0000000E+00
   2.670000      0.0000000E+00
   2.680000      0.0000000E+00
   2.690000      0.0000000E+00
   2.700000      0.0000000E+00
   2.710000      0.0000000E+00
   2.720000      0.0000000E+00
   2.730000      0.0000000E+00
   2.740000      0.0000000E+00
   2.750000      0.0000000E+00
   2.760000      0.0000000E+00
   2.770000      0.0000000E+00
   2.780000      0.0000000E+00
   2.790000      0.0000000E+00
   2.800000      0.0000000E+00
   2.810000      0.0000000E+00
   2.820000      0.0000000E+00
   2.830000      0.0000000E+00
   2.840000      0.0000000E+00
   2.850000      0.0000000E+00
   2.860000      0.0000000E+00
   2.870000      0.0000000E+00
   2.880000      0.0000000E+00
   2.890000      0.0000000E+00
   2.900000      0.0000000E+00
   2.910000      0.0000000E+00
   2.920000      0.0000000E+00
   2.930000      0.0000000E+00
   2.940000      0.0000000E+00
   2.950000      0.0000000E+00
   2.960000      0.0000000E+00
   2.970000      0.0000000E+00
   2.980000      0.0000000E+00
   2.990000      0.0000000E+00
   3.000000      0.0000000E+00
   3.010000      0.0000000E+00
   3.020000      0.0000000E+00
   3.030000      0.0000000E+00
   3.040000      0.0000000E+00
   3.050000      0.0000000E+00
   3.060000      0.0000000E+00
   3.070000      0.0000000E+00
   3.080000      0.0000000E+00
   3.090000      0.0000000E+00
   3.100000      0.0000000E+00
   3.110000      0.0000000E+00
   3.120000      0.0000000E+00
   3.130000      0.0000000E+00
   3.140000      0.0000000E+00
   3.150000      0.0000000E+00
   3.160000      0.0000000E+00
   3.170000      0.0000000E+00
   3.180000      0.0000000E+00
   3.190000      0.0000000E+00
   3.200000      0.0000000E+00
   3.210000      0.0000000E+00
   3.220000      0.0000000E+00
   3.230000      0.0000000E+00
   3.240000      0.0000000E+00
   3.250000      0.0000000E+00
   3.260000      0.0000000E+00
   3.270000      0.0000000E+00
   3.280000      0.0000000E+00
   3.290000      0.0000000E+00
   3.300000      0.0000000E+00
   3.310000      0.0000000E+00
   3.320000      0.0000000E+00
   3.330000      0.0000000E+00
   3.340000      0.0000000E+00
   3.350000      0.0000000E+00
   3.360000      0.0000000E+00
   3.370000      0.0000000E+00
   3.380000      0.0000000E+00
   3.390000      0.0000000E+00
   3.400000      0.0000000E+00
   3.410000      0.0000000E+00
   3.420000      0.0000000E+00
   3.430000      0.0000000E+00
   3.440000      0.0000000E+00
   3.450000      0.0000000E+00
   3.460000      0.0000000E+00
   3.470000      0.0000000E+00
   3.480000      0.0000000E+00
   3.490000      0.0000000E+00
   3.500000      0.0000000E+00
   3.510000      0.0000000E+00
   3.520000      0.0000000E+00
   3.530000      0.0000000E+00
   3.540000      0.0000000E+00
   3.550000      0.0000000E+00
   3.560000      0.0000000E+00
   3.570000      0.0000000E+00
   3.580000      0.0000000E+00
   3.590000      0.0000000E+00
   3.600000      0.0000000E+00
   3.610000      0.0000000E+00
   3.620000      0.0000000E+00
   3.630000      0.0000000E+00
   3.640000      0.0000000E+00
   3.650000      0.0000000E+00
   3.660000      0.0000000E+00
   3.670000      0.0000000E+00
   3.680000      0.0000000E+00
   3.690000      0.0000000E+00
   3.700000      0.0000000E+00
   3.710000     -1.5066684E-38
   3.720000     -1.9475221E-38
   3.730000     -2.4252715E-38
   3.740000     -2.9395736E-38
   3.750000     -3.4898750E-38
   3.760000     -4.0755667E-38
   3.770000     -4.6961065E-38
   3.780000     -5.3508952E-38
   3.790000     -5.9112094E-38
   3.800000     -6.3189912E-38
   3.810000     -6.6512391E-38
   3.820000     -6.9259496E-38
   3.830000     -7.1692430E-38
   3.840000     -7.4123112E-38
   3.850000     -7.6911757E-38
   3.860000     -8.0507102E-38
   3.870000     -8.5366402E-38
   3.880000     -9.2951260E-38
   3.890000     -1.0104045E-37
   3.900000     -1.0768546E-37
   3.910000     -1.1620279E-37
   3.920000     -1.2649601E-37
   3.930000     -1.3689523E-37
   3.940000     -1.4727559E-37
   3.950000     -1.5689628E-37
   3.960000     -1.6434273E-37
   3.970000     -1.6827541E-37
   3.980000     -1.6775132E-37
   3.990000     -1.6377376E-37
   4.000000     -1.5656852E-37
   4.010000     -1.4532057E-37
   4.020000     -1.3315276E-37
   4.030000     -1.2021497E-37
   4.040000     -1.0111455E-37
   4.050000     -7.9143577E-38
   4.060000     -6.0533196E-38
   4.070000     -4.3706272E-38
   4.080000     -2.5532925E-38
   4.090000      0.0000000E+00
   4.100000      1.8801706E-38
   4.110000      4.9768948E-38
   4.120000      9.0630307E-38
   4.130000      1.4157290E-37
   4.140000      1.9894441E-37
   4.150000      2.6350770E-37
   4.160000      3.3512676E-37
   4.170000      4.1187283E-37
   4.180000      4.9015245E-37
   4.190000      5.6959415E-37
   4.200000      6.5161531E-37
   4.210000      7.3912512E-37
   4.220000      8.3993211E-37
   4.230000      9.5011336E-37
   4.240000      1.0639061E-36
   4.250000      1.1811904E-36
   4.260000      1.2992586E-36
   4.270000      1.4179714E-36
   4.280000      1.5376351E-36
   4.290000      1.6584861E-36
   4.300000      1.7746560E-36
   4.310000      1.8846072E-36
   4.320000      1.9938204E-36
   4.330000      2.0933577E-36
   4.340000      2.1697865E-36
   4.350000      2.2348204E-36
   4.360000      2.2919663E-36
   4.370000      2.3347010E-36
   4.380000      2.3670945E-36
   4.390000      2.3672834E-36
   4.400000      2.2965102E-36
   4.410000      2.1898791E-36
   4.420000      2.0977251E-36
   4.430000      1.9863351E-36
   4.440000      1.7468729E-36
   4.450000      1.3892479E-36
   4.460000      9.6648716E-37
   4.470000      4.7011882E-37
   4.480000     -2.1178564E-37
   4.490000     -1.1328102E-36
   4.500000     -2.1785259E-36
   4.510000     -3.3186195E-36
   4.520000     -4.5524771E-36
   4.530000     -5.8209388E-36
   4.540000     -6.9252918E-36
   4.550000     -7.8332995E-36
   4.560000     -8.5895827E-36
   4.570000     -9.2506476E-36
   4.580000     -9.9061594E-36
   4.590000     -1.0531677E-35
   4.600000     -1.1145399E-35
   4.610000     -1.1740439E-35
   4.620000     -1.2258618E-35
   4.630000     -1.2629710E-35
   4.640000     -1.2885348E-35
   4.650000     -1.2710785E-35
   4.660000     -1.2057973E-35
   4.670000     -1.1332380E-35
   4.680000     -1.0618967E-35
   4.690000     -9.9652813E-36
   4.700000     -9.1577740E-36
   4.710000     -8.3278918E-36
   4.720000     -7.6643616E-36
   4.730000     -7.1486350E-36
   4.740000     -6.7851559E-36
   4.750000     -6.6173100E-36
   4.760000     -6.6473976E-36
   4.770000     -6.7461387E-36
   4.780000     -6.9220417E-36
   4.790000     -7.0600023E-36
   4.800000     -7.1260994E-36
   4.810000     -7.1575287E-36
   4.820000     -7.1711756E-36
   4.830000     -6.9268057E-36
   4.840000     -6.2871018E-36
   4.850000     -5.4455866E-36
   4.860000     -4.3211618E-36
   4.870000     -2.4020494E-36
   4.880000      3.3969537E-37
   4.890000      3.5907927E-36
   4.900000      7.3749263E-36
   4.910000      1.1627509E-35
   4.920000      1.6277889E-35
   4.930000      2.1300566E-35
   4.940000      2.6705682E-35
   4.950000      3.2339930E-35
   4.960000      3.8021594E-35
   4.970000      4.3647279E-35
   4.980000      4.9124362E-35
   4.990000      5.4321792E-35
   5.000000      5.9660821E-35
   5.010000      6.5525602E-35
   5.020000      7.1163251E-35
   5.030000      7.6445336E-35
   5.040000      8.1707969E-35
   5.050000      8.6283897E-35
   5.060000      8.9592540E-35
   5.070000      9.2098490E-35
   5.080000      9.4389131E-35
   5.090000      9.5633456E-35
   5.100000      9.6581325E-35
   5.110000      9.8025702E-35
   5.120000      9.9310113E-35
   5.130000      1.0060937E-34
   5.140000      1.0264979E-34
   5.150000      1.0500292E-34
   5.160000      1.0665241E-34
   5.170000      1.0758315E-34
   5.180000      1.0662485E-34
   5.190000      1.0354694E-34
   5.200000      9.9274631E-35
   5.210000      9.3473818E-35
   5.220000      8.6027297E-35
   5.230000      7.7619465E-35
   5.240000      6.6581665E-35
   5.250000      5.2812751E-35
   5.260000      3.7729164E-35
   5.270000      2.2440491E-35
   5.280000      7.2513501E-36
   5.290000     -9.2668128E-36
   5.300000     -2.6631109E-35
   5.310000     -4.4542684E-35
   5.320000     -6.4180000E-35
   5.330000     -8.4928256E-35
   5.340000     -1.0654628E-34
   5.350000     -1.2939571E-34
   5.360000     -1.5301497E-34
   5.370000     -1.7778669E-34
   5.380000     -2.0453923E-34
   5.390000     -2.3160986E-34
   5.400000     -2.5884454E-34
   5.410000     -2.8785547E-34
   5.420000     -3.1937341E-34
   5.430000     -3.5336830E-34
   5.440000     -3.8942392E-34
   5.450000     -4.2779660E-34
   5.460000     -4.6581783E-34
   5.470000     -5.0323460E-34
   5.480000     -5.4159033E-34
   5.490000     -5.8077544E-34
   5.500000     -6.2036127E-34
   5.510000     -6.6140682E-34
   5.520000     -7.0522356E-34
   5.530000     -7.4843826E-34
   5.540000     -7.9081906E-34
   5.550000     -8.3322851E-34
   5.560000     -8.7474091E-34
   5.570000     -9.1355968E-34
   5.580000     -9.5087097E-34
   5.590000     -9.8646421E-34
   5.600000     -1.0154164E-33
   5.610000     -1.0401322E-33
   5.620000     -1.0625126E-33
   5.630000     -1.0776969E-33
   5.640000     -1.0836130E-33
   5.650000     -1.0829132E-33
   5.660000     -1.0734325E-33
   5.670000     -1.0540359E-33
   5.680000     -1.0266612E-33
   5.690000     -9.9032534E-34
   5.700000     -9.4449961E-34
   5.710000     -8.9010903E-34
   5.720000     -8.2685329E-34
   5.730000     -7.5133971E-34
   5.740000     -6.6367832E-34
   5.750000     -5.6424941E-34
   5.760000     -4.5242748E-34
   5.770000     -3.2939317E-34
   5.780000     -1.9556160E-34
   5.790000     -5.1069042E-35
   5.800000      1.0418827E-34
   5.810000      2.7011285E-34
   5.820000      4.4689591E-34
   5.830000      6.3475496E-34
   5.840000      8.3522308E-34
   5.850000      1.0481076E-33
   5.860000      1.2740727E-33
   5.870000      1.5131570E-33
   5.880000      1.7680069E-33
   5.890000      2.0410558E-33
   5.900000      2.3315671E-33
   5.910000      2.6371397E-33
   5.920000      2.9561106E-33
   5.930000      3.2911417E-33
   5.940000      3.6396101E-33
   5.950000      4.0004655E-33
   5.960000      4.3775050E-33
   5.970000      4.7684626E-33
   5.980000      5.1693936E-33
   5.990000      5.5794590E-33
   6.000000      5.9969141E-33
   6.010000      6.4203848E-33
   6.020000      6.8484977E-33
   6.030000      7.2809231E-33
   6.040000      7.7156782E-33
   6.050000      8.1488736E-33
   6.060000      8.5781502E-33
   6.070000      9.0009667E-33
   6.080000      9.4122024E-33
   6.090000      9.8091536E-33
   6.100000      1.0192231E-32
   6.110000      1.0557199E-32
   6.120000      1.0895914E-32
   6.130000      1.1202579E-32
   6.140000      1.1473025E-32
   6.150000      1.1704158E-32
   6.160000      1.1892179E-32
   6.170000      1.2032393E-32
   6.180000      1.2121818E-32
   6.190000      1.2155425E-32
   6.200000      1.2128898E-32
   6.210000      1.2037890E-32
   6.220000      1.1875156E-32
   6.230000      1.1635007E-32
   6.240000      1.1311180E-32
   6.250000      1.0897542E-32
   6.260000      1.0390027E-32
   6.270000      9.7833662E-33
   6.280000      9.0718901E-33
   6.290000      8.2497435E-33
   6.300000      7.3098035E-33
   6.310000      6.2457732E-33
   6.320000      5.0539590E-33
   6.330000      3.7289329E-33
   6.340000      2.2648094E-33
   6.350000      6.5500561E-34
   6.360000     -1.1039298E-33
   6.370000     -3.0152723E-33
   6.380000     -5.0856606E-33
   6.390000     -7.3176580E-33
   6.400000     -9.7149032E-33
   6.410000     -1.2281342E-32
   6.420000     -1.5018657E-32
   6.430000     -1.7928625E-32
   6.440000     -2.1012298E-32
   6.450000     -2.4270696E-32
   6.460000     -2.7702887E-32
   6.470000     -3.1305742E-32
   6.480000     -3.5076763E-32
   6.490000     -3.9014314E-32
   6.500000     -4.3113747E-32
   6.510000     -4.7368599E-32
   6.520000     -5.1771581E-32
   6.530000     -5.6311939E-32
   6.540000     -6.0980668E-32
   6.550000     -6.5768909E-32
   6.560000     -7.0662233E-32
   6.570000     -7.5644778E-32
   6.580000     -8.0700579E-32
   6.590000     -8.5811111E-32
   6.600000     -9.0955797E-32
   6.610000     -9.6112979E-32
   6.620000     -1.0125959E-31
   6.630000     -1.0636997E-31
   6.640000     -1.1141606E-31
   6.650000     -1.1636827E-31
   6.660000     -1.2119469E-31
   6.670000     -1.2586168E-31
   6.680000     -1.3033455E-31
   6.690000     -1.3457440E-31
   6.700000     -1.3854053E-31
   6.710000     -1.4219165E-31
   6.720000     -1.4548352E-31
   6.730000     -1.4837016E-31
   6.740000     -1.5080357E-31
   6.750000     -1.5273339E-31
   6.760000     -1.5410764E-31
   6.770000     -1.5487253E-31
   6.780000     -1.5497252E-31
   6.790000     -1.5435032E-31
   6.800000     -1.5294707E-31
   6.810000     -1.5070276E-31
   6.820000     -1.4755555E-31
   6.830000     -1.4344241E-31
   6.840000     -1.3829971E-31
   6.850000     -1.3206304E-31
   6.860000     -1.2466702E-31
   6.870000     -1.1604638E-31
   6.880000     -1.0613648E-31
   6.890000     -9.4872227E-32
   6.900000     -8.2189325E-32
   6.910000     -6.8024747E-32
   6.920000     -5.2316728E-32
   6.930000     -3.5005375E-32
   6.940000     -1.6033689E-32
   6.950000      4.6535188E-33
   6.960000      2.7108228E-32
   6.970000      5.1377825E-32
   6.980000      7.7505515E-32
   6.990000      1.0553049E-31
   7.000000      1.3548661E-31
   7.010000      1.6740107E-31
   7.020000      2.0129497E-31
   7.030000      2.3718241E-31
   7.040000      2.7506951E-31
   7.050000      3.1495413E-31
   7.060000      3.5682535E-31