  -2.600000      0.0000000E+00
  -2.590000      0.0000000E+00
  -2.580000      0.0000000E+00
  -2.570000      0.0000000E+00
  -2.560000      0.0000000E+00
  -2.550000      0.0000000E+00
  -2.540000      0.0000000E+00
  -2.530000      0.0000000E+00
  -2.520000      0.0000000E+00
  -2.510000      0.0000000E+00
  -2.500000      0.0000000E+00
  -2.490000      0.0000000E+00
  -2.480000      0.0000000E+00
  -2.470000      0.0000000E+00
  -2.460000      0.0000000E+00
  -2.450000      0.0000000E+00
  -2.440000      0.0000000E+00
  -2.430000      0.0000000E+00
  -2.420000      0.0000000E+00
  -2.410000      0.0000000E+00
  -2.400000      0.0000000E+00
  -2.390000      0.0000000E+00
  -2.380000      0.0000000E+00
  -2.370000      0.0000000E+00
  -2.360000      0.0000000E+00
  -2.350000      0.0000000E+00
  -2.340000      0.0000000E+00
  -2.330000      0.0000000E+00
  -2.320000      0.0000000E+00
  -2.310000      0.0000000E+00
  -2.300000      0.0000000E+00
  -2.290000      0.0000000E+00
  -2.280000      0.0000000E+00
  -2.270000      0.0000000E+00
  -2.260000      0.0000000E+00
  -2.250000      0.0000000E+00
  -2.240000      0.0000000E+00
  -2.230000      0.0000000E+00
  -2.220000      0.0000000E+00
  -2.210000      0.0000000E+00
  -2.200000      0.0000000E+00
  -2.190000      0.0000000E+00
  -2.180000      0.0000000E+00
  -2.170000      0.0000000E+00
  -2.160000      0.0000000E+00
  -2.150000      0.0000000E+00
  -2.140000      0.0000000E+00
  -2.130000      0.0000000E+00
  -2.120000      0.0000000E+00
  -2.110000      0.0000000E+00
  -2.100000      0.0000000E+00
  -2.090000      0.0000000E+00
  -2.080000      0.0000000E+00
  -2.070000      0.0000000E+00
  -2.060000      0.0000000E+00
  -2.050000      0.0000000E+00
  -2.040000      0.0000000E+00
  -2.030000      0.0000000E+00
  -2.020000      0.0000000E+00
  -2.010000      0.0000000E+00
  -2.000000      0.0000000E+00
  -1.990000      0.0000000E+00
  -1.980000      0.0000000E+00
  -1.970000      0.0000000E+00
  -1.960000      0.0000000E+00
  -1.950000      0.0000000E+00
  -1.940000      0.0000000E+00
  -1.930000      0.0000000E+00
  -1.920000      0.0000000E+00
  -1.910000      0.0000000E+00
  -1.900000      0.0000000E+00
  -1.890000      0.0000000E+00
  -1.880000      0.0000000E+00
  -1.870000      0.0000000E+00
  -1.860000      0.0000000E+00
  -1.850000      0.0000000E+00
  -1.840000      0.0000000E+00
  -1.830000      0.0000000E+00
  -1.820000      0.0000000E+00
  -1.810000      0.0000000E+00
  -1.800000      0.0000000E+00
  -1.790000      0.0000000E+00
  -1.780000      0.0000000E+00
  -1.770000      0.0000000E+00
  -1.760000      0.0000000E+00
  -1.750000      0.0000000E+00
  -1.740000      0.0000000E+00
  -1.730000      0.0000000E+00
  -1.720000      0.0000000E+00
  -1.710000      0.0000000E+00
  -1.700000      0.0000000E+00
  -1.690000      0.0000000E+00
  -1.680000      0.0000000E+00
  -1.670000      0.0000000E+00
  -1.660000      0.0000000E+00
  -1.650000      0.0000000E+00
  -1.640000      0.0000000E+00
  -1.630000      0.0000000E+00
  -1.620000      0.0000000E+00
  -1.610000      0.0000000E+00
  -1.600000      0.0000000E+00
  -1.590000      0.0000000E+00
  -1.580000      0.0000000E+00
  -1.570000      0.0000000E+00
  -1.560000      0.0000000E+00
  -1.550000      0.0000000E+00
  -1.540000      0.0000000E+00
  -1.530000      0.0000000E+00
  -1.520000      0.0000000E+00
  -1.510000      0.0000000E+00
  -1.500000      0.0000000E+00
  -1.490000      0.0000000E+00
  -1.480000      0.0000000E+00
  -1.470000      0.0000000E+00
  -1.460000      0.0000000E+00
  -1.450000      0.0000000E+00
  -1.440000      0.0000000E+00
  -1.430000      0.0000000E+00
  -1.420000      0.0000000E+00
  -1.410000      0.0000000E+00
  -1.400000      0.0000000E+00
  -1.390000      0.0000000E+00
  -1.380000      0.0000000E+00
  -1.370000      0.0000000E+00
  -1.360000      0.0000000E+00
  -1.350000      0.0000000E+00
  -1.340000      0.0000000E+00
  -1.330000      0.0000000E+00
  -1.320000      0.0000000E+00
  -1.310000      0.0000000E+00
  -1.300000      0.0000000E+00
  -1.290000      0.0000000E+00
  -1.280000      0.0000000E+00
  -1.270000      0.0000000E+00
  -1.260000      0.0000000E+00
  -1.250000      0.0000000E+00
  -1.240000      0.0000000E+00
  -1.230000      0.0000000E+00
  -1.220000      0.0000000E+00
  -1.210000      0.0000000E+00
  -1.200000      0.0000000E+00
  -1.190000      0.0000000E+00
  -1.180000      0.0000000E+00
  -1.170000      0.0000000E+00
  -1.160000      0.0000000E+00
  -1.150000      0.0000000E+00
  -1.140000      0.0000000E+00
  -1.130000      0.0000000E+00
  -1.120000      0.0000000E+00
  -1.110000      0.0000000E+00
  -1.100000      0.0000000E+00
  -1.090000      0.0000000E+00
  -1.080000      0.0000000E+00
  -1.070000      0.0000000E+00
  -1.060000      0.0000000E+00
  -1.050000      0.0000000E+00
  -1.040000      0.0000000E+00
  -1.030000      0.0000000E+00
  -1.020000      0.0000000E+00
  -1.010000      0.0000000E+00
  -1.000000      0.0000000E+00
 -0.9900000      0.0000000E+00
 -0.9800000      0.0000000E+00
 -0.9700000      0.0000000E+00
 -0.9600000      0.0000000E+00
 -0.9500000      0.0000000E+00
 -0.9400000      0.0000000E+00
 -0.9300000      0.0000000E+00
 -0.9200000      0.0000000E+00
 -0.9100000      0.0000000E+00
 -0.9000000      0.0000000E+00
 -0.8900000      0.0000000E+00
 -0.8800000      0.0000000E+00
 -0.8700000      0.0000000E+00
 -0.8600000      0.0000000E+00
 -0.8500000      0.0000000E+00
 -0.8400000      0.0000000E+00
 -0.8300000      0.0000000E+00
 -0.8200000      0.0000000E+00
 -0.8100000      0.0000000E+00
 -0.8000000      0.0000000E+00
 -0.7900000      0.0000000E+00
 -0.7800000      0.0000000E+00
 -0.7700000      0.0000000E+00
 -0.7600000      0.0000000E+00
 -0.7500000      0.0000000E+00
 -0.7400000      0.0000000E+00
 -0.7300000      0.0000000E+00
 -0.7200000      0.0000000E+00
 -0.7100000      0.0000000E+00
 -0.7000000      0.0000000E+00
 -0.6900000      0.0000000E+00
 -0.6800000      0.0000000E+00
 -0.6700000      0.0000000E+00
 -0.6600000      0.0000000E+00
 -0.6500000      0.0000000E+00
 -0.6400000      0.0000000E+00
 -0.6300000      0.0000000E+00
 -0.6200000      0.0000000E+00
 -0.6100000      0.0000000E+00
 -0.6000000      0.0000000E+00
 -0.5900000      0.0000000E+00
 -0.5800000      0.0000000E+00
 -0.5700000      0.0000000E+00
 -0.5600000      0.0000000E+00
 -0.5500000      0.0000000E+00
 -0.5400000      0.0000000E+00
 -0.5300000      0.0000000E+00
 -0.5200000      0.0000000E+00
 -0.5100000      0.0000000E+00
 -0.5000000      0.0000000E+00
 -0.4900000      0.0000000E+00
 -0.4800000      0.0000000E+00
 -0.4700000      0.0000000E+00
 -0.4600000      0.0000000E+00
 -0.4500000      0.0000000E+00
 -0.4400000      0.0000000E+00
 -0.4300000      0.0000000E+00
 -0.4200000      0.0000000E+00
 -0.4100000      0.0000000E+00
 -0.4000000      0.0000000E+00
 -0.3900000      0.0000000E+00
 -0.3800000      0.0000000E+00
 -0.3700000      0.0000000E+00
 -0.3600000      0.0000000E+00
 -0.3500000      0.0000000E+00
 -0.3400000      0.0000000E+00
 -0.3300000      0.0000000E+00
 -0.3200000      0.0000000E+00
 -0.3100000      0.0000000E+00
 -0.3000000      0.0000000E+00
 -0.2900000      0.0000000E+00
 -0.2800000      0.0000000E+00
 -0.2700000      0.0000000E+00
 -0.2600000      0.0000000E+00
 -0.2500000      0.0000000E+00
 -0.2400000      0.0000000E+00
 -0.2300000      0.0000000E+00
 -0.2200000      0.0000000E+00
 -0.2100000      0.0000000E+00
 -0.2000000      0.0000000E+00
 -0.1900000      0.0000000E+00
 -0.1800000      0.0000000E+00
 -0.1700000      0.0000000E+00
 -0.1600000      0.0000000E+00
 -0.1500000      0.0000000E+00
 -0.1400000      0.0000000E+00
 -0.1300000      0.0000000E+00
 -0.1200000      0.0000000E+00
 -0.1100000      0.0000000E+00
 -0.1000000      0.0000000E+00
 -9.0000004E-02  0.0000000E+00
 -7.9999998E-02  0.0000000E+00
 -7.0000000E-02  0.0000000E+00
 -5.9999999E-02  0.0000000E+00
 -5.0000001E-02  0.0000000E+00
 -3.9999999E-02  0.0000000E+00
 -2.9999999E-02  0.0000000E+00
 -2.0000000E-02  0.0000000E+00
 -9.9999998E-03  0.0000000E+00
 -3.4694470E-17  0.0000000E+00
  9.9999998E-03  0.0000000E+00
  2.0000000E-02  0.0000000E+00
  2.9999999E-02  0.0000000E+00
  3.9999999E-02  0.0000000E+00
  5.0000001E-02  0.0000000E+00
  5.9999999E-02  0.0000000E+00
  7.0000000E-02  0.0000000E+00
  7.9999998E-02  0.0000000E+00
  9.0000004E-02  0.0000000E+00
  0.1000000      0.0000000E+00
  0.1100000      0.0000000E+00
  0.1200000      0.0000000E+00
  0.1300000      0.0000000E+00
  0.1400000      0.0000000E+00
  0.1500000      0.0000000E+00
  0.1600000      0.0000000E+00
  0.1700000      0.0000000E+00
  0.1800000      0.0000000E+00
  0.1900000      0.0000000E+00
  0.2000000      0.0000000E+00
  0.2100000      0.0000000E+00
  0.2200000      0.0000000E+00
  0.2300000      0.0000000E+00
  0.2400000      0.0000000E+00
  0.2500000      0.0000000E+00
  0.2600000      0.0000000E+00
  0.2700000      0.0000000E+00
  0.2800000      0.0000000E+00
  0.2900000      0.0000000E+00
  0.3000000      0.0000000E+00
  0.3100000      0.0000000E+00
  0.3200000      0.0000000E+00
  0.3300000      0.0000000E+00
  0.3400000      0.0000000E+00
  0.3500000      0.0000000E+00
  0.3600000      0.0000000E+00
  0.3700000      0.0000000E+00
  0.3800000      0.0000000E+00
  0.3900000      0.0000000E+00
  0.4000000      0.0000000E+00
  0.4100000      0.0000000E+00
  0.4200000      0.0000000E+00
  0.4300000      0.0000000E+00
  0.4400000      0.0000000E+00
  0.4500000      0.0000000E+00
  0.4600000      0.0000000E+00
  0.4700000      0.0000000E+00
  0.4800000      0.0000000E+00
  0.4900000      0.0000000E+00
  0.5000000      0.0000000E+00
  0.5100000      0.0000000E+00
  0.5200000      0.0000000E+00
  0.5300000      0.0000000E+00
  0.5400000      0.0000000E+00
  0.5500000      0.0000000E+00
  0.5600000      0.0000000E+00
  0.5700000      0.0000000E+00
  0.5800000      0.0000000E+00
  0.5900000      0.0000000E+00
  0.6000000      0.0000000E+00
  0.6100000      0.0000000E+00
  0.6200000      0.0000000E+00
  0.6300000      0.0000000E+00
  0.6400000      0.0000000E+00
  0.6500000      0.0000000E+00
  0.6600000      0.0000000E+00
  0.6700000      0.0000000E+00
  0.6800000      0.0000000E+00
  0.6900000      0.0000000E+00
  0.7000000      0.0000000E+00
  0.7100000      0.0000000E+00
  0.7200000      0.0000000E+00
  0.7300000      0.0000000E+00
  0.7400000      0.0000000E+00
  0.7500000      0.0000000E+00
  0.7600000      0.0000000E+00
  0.7700000      0.0000000E+00
  0.7800000      0.0000000E+00
  0.7900000      0.0000000E+00
  0.8000000      0.0000000E+00
  0.8100000      0.0000000E+00
  0.8200000      0.0000000E+00
  0.8300000      0.0000000E+00
  0.8400000      0.0000000E+00
  0.8500000      0.0000000E+00
  0.8600000      0.0000000E+00
  0.8700000      0.0000000E+00
  0.8800000      0.0000000E+00
  0.8900000      0.0000000E+00
  0.9000000      0.0000000E+00
  0.9100000      0.0000000E+00
  0.9200000      0.0000000E+00
  0.9300000      0.0000000E+00
  0.9400000      0.0000000E+00
  0.9500000      0.0000000E+00
  0.9600000      0.0000000E+00
  0.9700000      0.0000000E+00
  0.9800000      0.0000000E+00
  0.9900000      0.0000000E+00
   1.000000      0.0000000E+00
   1.010000      0.0000000E+00
   1.020000      0.0000000E+00
   1.030000      0.0000000E+00
   1.040000      0.0000000E+00
   1.050000      0.0000000E+00
   1.060000      0.0000000E+00
   1.070000      0.0000000E+00
   1.080000      0.0000000E+00
   1.090000      0.0000000E+00
   1.100000      0.0000000E+00
   1.110000      0.0000000E+00
   1.120000      0.0000000E+00
   1.130000      0.0000000E+00
   1.140000      0.0000000E+00
   1.150000      0.0000000E+00
   1.160000      0.0000000E+00
   1.170000      0.0000000E+00
   1.180000      0.0000000E+00
   1.190000      0.0000000E+00
   1.200000      0.0000000E+00
   1.210000      0.0000000E+00
   1.220000      0.0000000E+00
   1.230000      0.0000000E+00
   1.240000      0.0000000E+00
   1.250000      0.0000000E+00
   1.260000      0.0000000E+00
   1.270000      0.0000000E+00
   1.280000      0.0000000E+00
   1.290000      0.0000000E+00
   1.300000      0.0000000E+00
   1.310000      0.0000000E+00
   1.320000      0.0000000E+00
   1.330000      0.0000000E+00
   1.340000      0.0000000E+00
   1.350000      0.0000000E+00
   1.360000      0.0000000E+00
   1.370000      0.0000000E+00
   1.380000      0.0000000E+00
   1.390000      0.0000000E+00
   1.400000      0.0000000E+00
   1.410000      0.0000000E+00
   1.420000      0.0000000E+00
   1.430000      0.0000000E+00
   1.440000      0.0000000E+00
   1.450000      0.0000000E+00
   1.460000      0.0000000E+00
   1.470000      0.0000000E+00
   1.480000      0.0000000E+00
   1.490000      0.0000000E+00
   1.500000      0.0000000E+00
   1.510000      0.0000000E+00
   1.520000      0.0000000E+00
   1.530000      0.0000000E+00
   1.540000      0.0000000E+00
   1.550000      0.0000000E+00
   1.560000      0.0000000E+00
   1.570000      0.0000000E+00
   1.580000      0.0000000E+00
   1.590000      0.0000000E+00
   1.600000      0.0000000E+00
   1.610000      0.0000000E+00
   1.620000      0.0000000E+00
   1.630000      0.0000000E+00
   1.640000      0.0000000E+00
   1.650000      0.0000000E+00
   1.660000      0.0000000E+00
   1.670000      0.0000000E+00
   1.680000      0.0000000E+00
   1.690000      0.0000000E+00
   1.700000      0.0000000E+00
   1.710000      0.0000000E+00
   1.720000      0.0000000E+00
   1.730000      0.0000000E+00
   1.740000      0.0000000E+00
   1.750000      0.0000000E+00
   1.760000      0.0000000E+00
   1.770000      0.0000000E+00
   1.780000      0.0000000E+00
   1.790000      0.0000000E+00
   1.800000      0.0000000E+00
   1.810000      0.0000000E+00
   1.820000      0.0000000E+00
   1.830000      0.0000000E+00
   1.840000      0.0000000E+00
   1.850000      0.0000000E+00
   1.860000      0.0000000E+00
   1.870000      0.0000000E+00
   1.880000      0.0000000E+00
   1.890000      0.0000000E+00
   1.900000      0.0000000E+00
   1.910000      0.0000000E+00
   1.920000      0.0000000E+00
   1.930000      0.0000000E+00
   1.940000      0.0000000E+00
   1.950000      0.0000000E+00
   1.960000      0.0000000E+00
   1.970000      0.0000000E+00
   1.980000      0.0000000E+00
   1.990000      0.0000000E+00
   2.000000      0.0000000E+00
   2.010000      0.0000000E+00
   2.020000      0.0000000E+00
   2.030000      0.0000000E+00
   2.040000      0.0000000E+00
   2.050000      0.0000000E+00
   2.060000      0.0000000E+00
   2.070000      0.0000000E+00
   2.080000      0.0000000E+00
   2.090000      0.0000000E+00
   2.100000      0.0000000E+00
   2.110000      0.0000000E+00
   2.120000      0.0000000E+00
   2.130000      0.0000000E+00
   2.140000      0.0000000E+00
   2.150000      0.0000000E+00
   2.160000      0.0000000E+00
   2.170000      0.0000000E+00
   2.180000      0.0000000E+00
   2.190000      0.0000000E+00
   2.200000      0.0000000E+00
   2.210000      0.0000000E+00
   2.220000      0.0000000E+00
   2.230000      0.0000000E+00
   2.240000      0.0000000E+00
   2.250000      0.0000000E+00
   2.260000      0.0000000E+00
   2.270000      0.0000000E+00
   2.280000      0.0000000E+00
   2.290000      0.0000000E+00
   2.300000      0.0000000E+00
   2.310000      0.0000000E+00
   2.320000      0.0000000E+00
   2.330000      0.0000000E+00
   2.340000      0.0000000E+00
   2.350000      0.0000000E+00
   2.360000      0.0000000E+00
   2.370000      0.0000000E+00
   2.380000      0.0000000E+00
   2.390000      0.0000000E+00
   2.400000      0.0000000E+00
   2.410000      0.0000000E+00
   2.420000      0.0000000E+00
   2.430000      0.0000000E+00
   2.440000      0.0000000E+00
   2.450000      0.0000000E+00
   2.460000      0.0000000E+00
   2.470000      0.0000000E+00
   2.480000      0.0000000E+00
   2.490000      0.0000000E+00
   2.500000      0.0000000E+00
   2.510000      0.0000000E+00
   2.520000      0.0000000E+00
   2.530000      0.0000000E+00
   2.540000      0.0000000E+00
   2.550000      0.0000000E+00
   2.560000      0.0000000E+00
   2.570000      0.0000000E+00
   2.580000      0.0000000E+00
   2.590000      0.0000000E+00
   2.600000      0.0000000E+00
   2.610000      0.0000000E+00
   2.620000      0.0000000E+00
   2.630000      0.0000000E+00
   2.640000     -1.2256020E-38
   2.650000     -1.4014089E-38
   2.660000     -1.5863374E-38
   2.670000     -1.7822140E-38
   2.680000     -1.9757639E-38
   2.690000     -2.1674234E-38
   2.700000     -2.3722831E-38
   2.710000     -2.5907399E-38
   2.720000     -2.8223852E-38
   2.730000     -3.0657476E-38
   2.740000     -3.3183611E-38
   2.750000     -3.5682188E-38
   2.760000     -3.8127431E-38
   2.770000     -4.0874778E-38
   2.780000     -4.3820523E-38
   2.790000     -4.6477640E-38
   2.800000     -4.8483408E-38
   2.810000     -4.9842802E-38
   2.820000     -5.0793056E-38
   2.830000     -5.1154557E-38
   2.840000     -4.9197487E-38
   2.850000     -4.5243199E-38
   2.860000     -4.1089473E-38
   2.870000     -3.6472338E-38
   2.880000     -3.1151448E-38
   2.890000     -2.5048560E-38
   2.900000     -1.7804031E-38
   2.910000      0.0000000E+00
   2.920000      0.0000000E+00
   2.930000      1.7805749E-38
   2.940000      3.2018075E-38
   2.950000      4.9228955E-38
   2.960000      6.8395551E-38
   2.970000      8.8197036E-38
   2.980000      1.1089375E-37
   2.990000      1.4174245E-37
   3.000000      1.8053388E-37
   3.010000      2.2118846E-37
   3.020000      2.6219787E-37
   3.030000      2.9839182E-37
   3.040000      3.1397343E-37
   3.050000      3.1320339E-37
   3.060000      3.0988660E-37
   3.070000      2.9368882E-37
   3.080000      2.6186390E-37
   3.090000      2.2550854E-37
   3.100000      1.8864993E-37
   3.110000      1.5353472E-37
   3.120000      1.2277349E-37
   3.130000      1.0152570E-37
   3.140000      8.9671998E-38
   3.150000      8.4239197E-38
   3.160000      7.8498262E-38
   3.170000      5.2742873E-38
   3.180000      0.0000000E+00
   3.190000     -5.7787654E-38
   3.200000     -1.3753201E-37
   3.210000     -2.3836423E-37
   3.220000     -3.5197662E-37
   3.230000     -4.7238713E-37
   3.240000     -6.0485687E-37
   3.250000     -7.4854548E-37
   3.260000     -8.9810900E-37
   3.270000     -1.0510540E-36
   3.280000     -1.2087475E-36
   3.290000     -1.3720879E-36
   3.300000     -1.5410504E-36
   3.310000     -1.7110237E-36
   3.320000     -1.8759838E-36
   3.330000     -2.0319099E-36
   3.340000     -2.1843763E-36
   3.350000     -2.3245858E-36
   3.360000     -2.4524406E-36
   3.370000     -2.5751032E-36
   3.380000     -2.6956830E-36
   3.390000     -2.8313093E-36
   3.400000     -2.9614671E-36
   3.410000     -3.0803911E-36
   3.420000     -3.2106174E-36
   3.430000     -3.3362523E-36
   3.440000     -3.4332245E-36
   3.450000     -3.5276224E-36
   3.460000     -3.6368159E-36
   3.470000     -3.7046931E-36
   3.480000     -3.6295688E-36
   3.490000     -3.4303481E-36
   3.500000     -3.1836145E-36
   3.510000     -2.8843020E-36
   3.520000     -2.5011046E-36
   3.530000     -2.0338443E-36
   3.540000     -1.5045408E-36
   3.550000     -9.4345125E-37
   3.560000     -3.0900586E-37
   3.570000      3.7689628E-37
   3.580000      1.0500746E-36
   3.590000      1.7709435E-36
   3.600000      2.5769781E-36
   3.610000      3.5113847E-36
   3.620000      4.6005638E-36
   3.630000      5.8042896E-36
   3.640000      7.1647234E-36
   3.650000      8.6670051E-36
   3.660000      1.0241683E-35
   3.670000      1.1881688E-35
   3.680000      1.3588382E-35
   3.690000      1.5402748E-35
   3.700000      1.7342008E-35
   3.710000      1.9372820E-35
   3.720000      2.1496328E-35
   3.730000      2.3541322E-35
   3.740000      2.5375927E-35
   3.750000      2.7040706E-35
   3.760000      2.8651843E-35
   3.770000      3.0391632E-35
   3.780000      3.2172351E-35
   3.790000      3.3885203E-35
   3.800000      3.5555312E-35
   3.810000      3.7258875E-35
   3.820000      3.8798560E-35
   3.830000      3.9899779E-35
   3.840000      4.0682006E-35
   3.850000      4.1193897E-35
   3.860000      4.1350066E-35
   3.870000      4.1172175E-35
   3.880000      4.0518808E-35
   3.890000      3.9015099E-35
   3.900000      3.6792422E-35
   3.910000      3.4115604E-35
   3.920000      3.1225624E-35
   3.930000      2.8178511E-35
   3.940000      2.5128149E-35
   3.950000      2.1838462E-35
   3.960000      1.7811103E-35
   3.970000      1.3268655E-35
   3.980000      8.6863824E-36
   3.990000      4.0536608E-36
   4.000000     -1.2334019E-36
   4.010000     -7.2256958E-36
   4.020000     -1.3732961E-35
   4.030000     -2.0696362E-35
   4.040000     -2.8183823E-35
   4.050000     -3.6199658E-35
   4.060000     -4.4550183E-35
   4.070000     -5.3099806E-35
   4.080000     -6.2099851E-35
   4.090000     -7.1634035E-35
   4.100000     -8.1635242E-35
   4.110000     -9.2271279E-35
   4.120000     -1.0356746E-34
   4.130000     -1.1539565E-34
   4.140000     -1.2765337E-34
   4.150000     -1.4053403E-34
   4.160000     -1.5393635E-34
   4.170000     -1.6748914E-34
   4.180000     -1.8135038E-34
   4.190000     -1.9570645E-34
   4.200000     -2.0996159E-34
   4.210000     -2.2362014E-34
   4.220000     -2.3678263E-34
   4.230000     -2.4956236E-34
   4.240000     -2.6184747E-34
   4.250000     -2.7270098E-34
   4.260000     -2.8099047E-34
   4.270000     -2.8666604E-34
   4.280000     -2.8988237E-34
   4.290000     -2.9131032E-34
   4.300000     -2.9122198E-34
   4.310000     -2.8963517E-34
   4.320000     -2.8674747E-34
   4.330000     -2.8182925E-34
   4.340000     -2.7592941E-34
   4.350000     -2.6891396E-34
   4.360000     -2.5918291E-34
   4.370000     -2.4491170E-34
   4.380000     -2.2817792E-34
   4.390000     -2.1092024E-34
   4.400000     -1.9060502E-34
   4.410000     -1.6608909E-34
   4.420000     -1.3524626E-34
   4.430000     -9.8169126E-35
   4.440000     -5.9386767E-35
   4.450000     -1.9579120E-35
   4.460000      2.4307846E-35
   4.470000      7.3079043E-35
   4.480000      1.2631492E-34
   4.490000      1.8047693E-34
   4.500000      2.3488981E-34
   4.510000      2.9280246E-34
   4.520000      3.5620606E-34
   4.530000      4.2621882E-34
   4.540000      5.0037787E-34
   4.550000      5.7928766E-34
   4.560000      6.6440350E-34
   4.570000      7.5619350E-34
   4.580000      8.5234774E-34
   4.590000      9.5011048E-34
   4.600000      1.0504364E-33
   4.610000      1.1506185E-33
   4.620000      1.2492728E-33
   4.630000      1.3543061E-33
   4.640000      1.4676100E-33
   4.650000      1.5807300E-33
   4.660000      1.6899783E-33
   4.670000      1.7963278E-33
   4.680000      1.9009667E-33
   4.690000      2.0027885E-33
   4.700000      2.0983560E-33
   4.710000      2.1844410E-33
   4.720000      2.2597285E-33
   4.730000      2.3250792E-33
   4.740000      2.3809420E-33
   4.750000      2.4256875E-33
   4.760000      2.4558518E-33
   4.770000      2.4684109E-33
   4.780000      2.4646313E-33
   4.790000      2.4444269E-33
   4.800000      2.4043853E-33
   4.810000      2.3461115E-33
   4.820000      2.2714509E-33
   4.830000      2.1784133E-33
   4.840000      2.0673917E-33
   4.850000      1.9360947E-33
   4.860000      1.7779890E-33
   4.870000      1.5917117E-33
   4.880000      1.3807412E-33
   4.890000      1.1443370E-33
   4.900000      8.8034903E-34
   4.910000      5.8468905E-34
   4.920000      2.5764745E-34
   4.930000     -1.0036388E-34
   4.940000     -4.9491104E-34
   4.950000     -9.2367821E-34
   4.960000     -1.3860361E-33
   4.970000     -1.8838515E-33
   4.980000     -2.4195193E-33
   4.990000     -2.9929690E-33
   5.000000     -3.5996241E-33
   5.010000     -4.2459973E-33
   5.020000     -4.9311018E-33
   5.030000     -5.6515553E-33
   5.040000     -6.4075543E-33
   5.050000     -7.1942723E-33
   5.060000     -8.0116670E-33
   5.070000     -8.8576159E-33
   5.080000     -9.7279409E-33
   5.090000     -1.0619040E-32
   5.100000     -1.1526482E-32
   5.110000     -1.2446903E-32
   5.120000     -1.3375036E-32
   5.130000     -1.4303476E-32
   5.140000     -1.5226172E-32
   5.150000     -1.6136280E-32
   5.160000     -1.7026501E-32
   5.170000     -1.7887978E-32
   5.180000     -1.8712983E-32
   5.190000     -1.9496914E-32
   5.200000     -2.0228026E-32
   5.210000     -2.0896763E-32
   5.220000     -2.1496771E-32
   5.230000     -2.2017108E-32
   5.240000     -2.2448167E-32
   5.250000     -2.2779372E-32
   5.260000     -2.3000012E-32
   5.270000     -2.3098895E-32
   5.280000     -2.3064739E-32
   5.290000     -2.2884590E-32
   5.300000     -2.2546089E-32
   5.310000     -2.2037463E-32
   5.320000     -2.1344726E-32
   5.330000     -2.0454948E-32
   5.340000     -1.9355211E-32
   5.350000     -1.8030905E-32
   5.360000     -1.6468123E-32
   5.370000     -1.4653854E-32
   5.380000     -1.2574403E-32
   5.390000     -1.0216501E-32
   5.400000     -7.5679891E-33
   5.410000     -4.6158317E-33
   5.420000     -1.3480034E-33
   5.430000      2.2454550E-33
   5.440000      6.1747550E-33
   5.450000      1.0448862E-32
   5.460000      1.5075061E-32
   5.470000      2.0059354E-32
   5.480000      2.5406200E-32
   5.490000      3.1118556E-32
   5.500000      3.7197199E-32
   5.510000      4.3640560E-32
   5.520000      5.0445059E-32
   5.530000      5.7603167E-32
   5.540000      6.5107405E-32
   5.550000      7.2947712E-32
   5.560000      8.1108522E-32
   5.570000      8.9571800E-32
   5.580000      9.8316314E-32
   5.590000      1.0731803E-31
   5.600000      1.1654897E-31
   5.610000      1.2597749E-31
   5.620000      1.3556809E-31
   5.630000      1.4528124E-31
   5.640000      1.5507321E-31
   5.650000      1.6489607E-31
   5.660000      1.7469741E-31
   5.670000      1.8442021E-31
   5.680000      1.9400312E-31
   5.690000      2.0337975E-31
   5.700000      2.1247742E-31
   5.710000      2.2122120E-31
   5.720000      2.2953093E-31
   5.730000      2.3731917E-31
   5.740000      2.4449457E-31
   5.750000      2.5096040E-31
   5.760000      2.5661493E-31
   5.770000      2.6135159E-31
   5.780000      2.6505931E-31
   5.790000      2.6762137E-31
   5.800000      2.6891648E-31
   5.810000      2.6881997E-31
   5.820000      2.6720280E-31
   5.830000      2.6393219E-31
   5.840000      2.5887202E-31
   5.850000      2.5188333E-31
   5.860000      2.4282469E-31
   5.870000      2.3155301E-31
   5.880000      2.1792372E-31
   5.890000      2.0179150E-31
   5.900000      1.8301127E-31
   5.910000      1.6143880E-31
   5.920000      1.3693135E-31
   5.930000      1.0934856E-31
   5.940000      7.8553856E-32
   5.950000      4.4415058E-32
   5.960000      6.8051381E-33
   5.970000     -3.4396237E-32
   5.980000     -7.9301658E-32
   5.990000     -1.2801481E-31
   6.000000     -1.8062921E-31
   6.010000     -2.3722680E-31
   6.020000     -2.9787664E-31
   6.030000     -3.6263342E-31
   6.040000     -4.3153615E-31
   6.050000     -5.0460643E-31
   6.060000     -5.8184676E-31
   6.070000     -6.6323921E-31
   6.080000     -7.4874354E-31
   6.090000     -8.3829561E-31
   6.100000     -9.3180544E-31
   6.110000     -1.0291555E-30
   6.120000     -1.1301989E-30
   6.130000     -1.2347577E-30
   6.140000     -1.3426206E-30
   6.150000     -1.4535417E-30
   6.160000     -1.5672386E-30
   6.170000     -1.6833899E-30
   6.180000     -1.8016345E-30
   6.190000     -1.9215690E-30
   6.200000     -2.0427461E-30
   6.210000     -2.1646736E-30
   6.220000     -2.2868129E-30
   6.230000     -2.4085765E-30
   6.240000     -2.5293279E-30
   6.250000     -2.6483799E-30
   6.260000     -2.7649935E-30
   6.270000     -2.8783773E-30
   6.280000     -2.9876868E-30
   6.290000     -3.0920237E-30
   6.300000     -3.1904357E-30
   6.310000     -3.2819159E-30
   6.320000     -3.3654042E-30
   6.330000     -3.4397861E-30
   6.340000     -3.5038944E-30
   6.350000     -3.5565103E-30
   6.360000     -3.5963638E-30
   6.370000     -3.6221371E-30
   6.380000     -3.6324634E-30
   6.390000     -3.6259325E-30
   6.400000     -3.6010921E-30
   6.410000     -3.5564516E-30
   6.420000     -3.4904836E-30
   6.430000     -3.4016320E-30
   6.440000     -3.2883113E-30
   6.450000     -3.1489175E-30
   6.460000     -2.9818278E-30
   6.470000     -2.7854110E-30
   6.480000     -2.5580320E-30
   6.490000     -2.2980599E-30
   6.500000     -2.0038748E-30
   6.510000     -1.6738774E-30
   6.520000     -1.3064969E-30
   6.530000     -9.0020081E-31
   6.540000     -4.5350553E-31
   6.550000      3.5013904E-32
   6.560000      5.6671128E-31
   6.570000      1.1428578E-30
   6.580000      1.7646301E-30
   6.590000      2.4330965E-30
   6.600000      3.1492024E-30
   6.610000      3.9137582E-30
   6.620000      4.7274222E-30
   6.630000      5.5906876E-30
   6.640000      6.5038632E-30
   6.650000      7.4670621E-30
   6.660000      8.4801795E-30
   6.670000      9.5428783E-30
   6.680000      1.0654573E-29
   6.690000      1.1814409E-29
   6.700000      1.3021245E-29
   6.710000      1.4273637E-29
   6.720000      1.5569820E-29
   6.730000      1.6907680E-29
   6.740000      1.8284752E-29
   6.750000      1.9698187E-29
   6.760000      2.1144741E-29
   6.770000      2.2620754E-29
   6.780000      2.4122136E-29
   6.790000      2.5644338E-29
   6.800000      2.7182359E-29
   6.810000      2.8730698E-29
   6.820000      3.0283371E-29
   6.830000      3.1833868E-29
   6.840000      3.3375156E-29
   6.850000      3.4899674E-29
   6.860000      3.6399297E-29
   6.870000      3.7865351E-29
   6.880000      3.9288595E-29
   6.890000      4.0659210E-29
   6.900000      4.1966805E-29
   6.910000      4.3200414E-29
   6.920000      4.4348494E-29
   6.930000      4.5398923E-29
   6.940000      4.6339018E-29
   6.950000      4.7155525E-29
   6.960000      4.7834662E-29
   6.970000      4.8362096E-29
   6.980000      4.8722997E-29
   6.990000      4.8902031E-29
   7.000000      4.8883400E-29
   7.010000      4.8650871E-29
   7.020000      4.8187814E-29
   7.030000      4.7477234E-29
   7.040000      4.6501804E-29
   7.050000      4.5243931E-29
   7.060000      4.3685803E-29