  -2.600000      0.0000000E+00
  -2.590000      0.0000000E+00
  -2.580000      0.0000000E+00
  -2.570000      0.0000000E+00
  -2.560000      0.0000000E+00
  -2.550000      0.0000000E+00
  -2.540000      0.0000000E+00
  -2.530000      0.0000000E+00
  -2.520000      0.0000000E+00
  -2.510000      0.0000000E+00
  -2.500000      0.0000000E+00
  -2.490000      0.0000000E+00
  -2.480000      0.0000000E+00
  -2.470000      0.0000000E+00
  -2.460000      0.0000000E+00
  -2.450000      0.0000000E+00
  -2.440000      0.0000000E+00
  -2.430000      0.0000000E+00
  -2.420000      0.0000000E+00
  -2.410000      0.0000000E+00
  -2.400000      0.0000000E+00
  -2.390000      0.0000000E+00
  -2.380000      0.0000000E+00
  -2.370000      0.0000000E+00
  -2.360000      0.0000000E+00
  -2.350000      0.0000000E+00
  -2.340000      0.0000000E+00
  -2.330000      0.0000000E+00
  -2.320000      0.0000000E+00
  -2.310000      0.0000000E+00
  -2.300000      0.0000000E+00
  -2.290000      0.0000000E+00
  -2.280000      0.0000000E+00
  -2.270000      0.0000000E+00
  -2.260000      0.0000000E+00
  -2.250000      0.0000000E+00
  -2.240000      0.0000000E+00
  -2.230000      0.0000000E+00
  -2.220000      0.0000000E+00
  -2.210000      0.0000000E+00
  -2.200000      0.0000000E+00
  -2.190000      0.0000000E+00
  -2.180000      0.0000000E+00
  -2.170000      0.0000000E+00
  -2.160000      0.0000000E+00
  -2.150000      0.0000000E+00
  -2.140000      0.0000000E+00
  -2.130000      0.0000000E+00
  -2.120000      0.0000000E+00
  -2.110000      0.0000000E+00
  -2.100000      0.0000000E+00
  -2.090000      0.0000000E+00
  -2.080000      0.0000000E+00
  -2.070000      0.0000000E+00
  -2.060000      0.0000000E+00
  -2.050000      0.0000000E+00
  -2.040000      0.0000000E+00
  -2.030000      0.0000000E+00
  -2.020000      0.0000000E+00
  -2.010000      0.0000000E+00
  -2.000000      0.0000000E+00
  -1.990000      0.0000000E+00
  -1.980000      0.0000000E+00
  -1.970000      0.0000000E+00
  -1.960000      0.0000000E+00
  -1.950000      0.0000000E+00
  -1.940000      0.0000000E+00
  -1.930000      0.0000000E+00
  -1.920000      0.0000000E+00
  -1.910000      0.0000000E+00
  -1.900000      0.0000000E+00
  -1.890000      0.0000000E+00
  -1.880000      0.0000000E+00
  -1.870000      0.0000000E+00
  -1.860000      0.0000000E+00
  -1.850000      0.0000000E+00
  -1.840000      0.0000000E+00
  -1.830000      0.0000000E+00
  -1.820000      0.0000000E+00
  -1.810000      0.0000000E+00
  -1.800000      0.0000000E+00
  -1.790000      0.0000000E+00
  -1.780000      0.0000000E+00
  -1.770000      0.0000000E+00
  -1.760000      0.0000000E+00
  -1.750000      0.0000000E+00
  -1.740000      0.0000000E+00
  -1.730000      0.0000000E+00
  -1.720000      0.0000000E+00
  -1.710000      0.0000000E+00
  -1.700000      0.0000000E+00
  -1.690000      0.0000000E+00
  -1.680000      0.0000000E+00
  -1.670000      0.0000000E+00
  -1.660000      0.0000000E+00
  -1.650000      0.0000000E+00
  -1.640000      0.0000000E+00
  -1.630000      0.0000000E+00
  -1.620000      0.0000000E+00
  -1.610000      0.0000000E+00
  -1.600000      0.0000000E+00
  -1.590000      0.0000000E+00
  -1.580000      0.0000000E+00
  -1.570000      0.0000000E+00
  -1.560000      0.0000000E+00
  -1.550000      0.0000000E+00
  -1.540000      0.0000000E+00
  -1.530000      0.0000000E+00
  -1.520000      0.0000000E+00
  -1.510000      0.0000000E+00
  -1.500000      0.0000000E+00
  -1.490000      0.0000000E+00
  -1.480000      0.0000000E+00
  -1.470000      0.0000000E+00
  -1.460000      0.0000000E+00
  -1.450000      0.0000000E+00
  -1.440000      0.0000000E+00
  -1.430000      0.0000000E+00
  -1.420000      0.0000000E+00
  -1.410000      0.0000000E+00
  -1.400000      0.0000000E+00
  -1.390000      0.0000000E+00
  -1.380000      0.0000000E+00
  -1.370000      0.0000000E+00
  -1.360000      0.0000000E+00
  -1.350000      0.0000000E+00
  -1.340000      0.0000000E+00
  -1.330000      0.0000000E+00
  -1.320000      0.0000000E+00
  -1.310000      0.0000000E+00
  -1.300000      0.0000000E+00
  -1.290000      0.0000000E+00
  -1.280000      0.0000000E+00
  -1.270000      0.0000000E+00
  -1.260000      0.0000000E+00
  -1.250000      0.0000000E+00
  -1.240000      0.0000000E+00
  -1.230000      0.0000000E+00
  -1.220000      0.0000000E+00
  -1.210000      0.0000000E+00
  -1.200000      0.0000000E+00
  -1.190000      0.0000000E+00
  -1.180000      0.0000000E+00
  -1.170000      0.0000000E+00
  -1.160000      0.0000000E+00
  -1.150000      0.0000000E+00
  -1.140000      0.0000000E+00
  -1.130000      0.0000000E+00
  -1.120000      0.0000000E+00
  -1.110000      0.0000000E+00
  -1.100000      0.0000000E+00
  -1.090000      0.0000000E+00
  -1.080000      0.0000000E+00
  -1.070000      0.0000000E+00
  -1.060000      0.0000000E+00
  -1.050000      0.0000000E+00
  -1.040000      0.0000000E+00
  -1.030000      0.0000000E+00
  -1.020000      0.0000000E+00
  -1.010000      0.0000000E+00
  -1.000000      0.0000000E+00
 -0.9900000      0.0000000E+00
 -0.9800000      0.0000000E+00
 -0.9700000      0.0000000E+00
 -0.9600000      0.0000000E+00
 -0.9500000      0.0000000E+00
 -0.9400000      0.0000000E+00
 -0.9300000      0.0000000E+00
 -0.9200000      0.0000000E+00
 -0.9100000      0.0000000E+00
 -0.9000000      0.0000000E+00
 -0.8900000      0.0000000E+00
 -0.8800000      0.0000000E+00
 -0.8700000      0.0000000E+00
 -0.8600000      0.0000000E+00
 -0.8500000      0.0000000E+00
 -0.8400000      0.0000000E+00
 -0.8300000      0.0000000E+00
 -0.8200000      0.0000000E+00
 -0.8100000      0.0000000E+00
 -0.8000000      0.0000000E+00
 -0.7900000      0.0000000E+00
 -0.7800000      0.0000000E+00
 -0.7700000      0.0000000E+00
 -0.7600000      0.0000000E+00
 -0.7500000      0.0000000E+00
 -0.7400000      0.0000000E+00
 -0.7300000      0.0000000E+00
 -0.7200000      0.0000000E+00
 -0.7100000      0.0000000E+00
 -0.7000000      0.0000000E+00
 -0.6900000      0.0000000E+00
 -0.6800000      0.0000000E+00
 -0.6700000      0.0000000E+00
 -0.6600000      0.0000000E+00
 -0.6500000      0.0000000E+00
 -0.6400000      0.0000000E+00
 -0.6300000      0.0000000E+00
 -0.6200000      0.0000000E+00
 -0.6100000      0.0000000E+00
 -0.6000000      0.0000000E+00
 -0.5900000      0.0000000E+00
 -0.5800000      0.0000000E+00
 -0.5700000      0.0000000E+00
 -0.5600000      0.0000000E+00
 -0.5500000      0.0000000E+00
 -0.5400000      0.0000000E+00
 -0.5300000      0.0000000E+00
 -0.5200000      0.0000000E+00
 -0.5100000      0.0000000E+00
 -0.5000000      0.0000000E+00
 -0.4900000      0.0000000E+00
 -0.4800000      0.0000000E+00
 -0.4700000      0.0000000E+00
 -0.4600000      0.0000000E+00
 -0.4500000      0.0000000E+00
 -0.4400000      0.0000000E+00
 -0.4300000      0.0000000E+00
 -0.4200000      0.0000000E+00
 -0.4100000      0.0000000E+00
 -0.4000000      0.0000000E+00
 -0.3900000      0.0000000E+00
 -0.3800000      0.0000000E+00
 -0.3700000      0.0000000E+00
 -0.3600000      0.0000000E+00
 -0.3500000      0.0000000E+00
 -0.3400000      0.0000000E+00
 -0.3300000      0.0000000E+00
 -0.3200000      0.0000000E+00
 -0.3100000      0.0000000E+00
 -0.3000000      0.0000000E+00
 -0.2900000      0.0000000E+00
 -0.2800000      0.0000000E+00
 -0.2700000      0.0000000E+00
 -0.2600000      0.0000000E+00
 -0.2500000      0.0000000E+00
 -0.2400000      0.0000000E+00
 -0.2300000      0.0000000E+00
 -0.2200000      0.0000000E+00
 -0.2100000      0.0000000E+00
 -0.2000000      0.0000000E+00
 -0.1900000      0.0000000E+00
 -0.1800000      0.0000000E+00
 -0.1700000      0.0000000E+00
 -0.1600000      0.0000000E+00
 -0.1500000      0.0000000E+00
 -0.1400000      0.0000000E+00
 -0.1300000      0.0000000E+00
 -0.1200000      0.0000000E+00
 -0.1100000      0.0000000E+00
 -0.1000000      0.0000000E+00
 -9.0000004E-02  0.0000000E+00
 -7.9999998E-02  0.0000000E+00
 -7.0000000E-02  0.0000000E+00
 -5.9999999E-02  0.0000000E+00
 -5.0000001E-02  0.0000000E+00
 -3.9999999E-02  0.0000000E+00
 -2.9999999E-02  0.0000000E+00
 -2.0000000E-02  0.0000000E+00
 -9.9999998E-03  0.0000000E+00
 -3.4694470E-17  0.0000000E+00
  9.9999998E-03  0.0000000E+00
  2.0000000E-02  0.0000000E+00
  2.9999999E-02  0.0000000E+00
  3.9999999E-02  0.0000000E+00
  5.0000001E-02  0.0000000E+00
  5.9999999E-02  0.0000000E+00
  7.0000000E-02  0.0000000E+00
  7.9999998E-02  0.0000000E+00
  9.0000004E-02  0.0000000E+00
  0.1000000      0.0000000E+00
  0.1100000      0.0000000E+00
  0.1200000      0.0000000E+00
  0.1300000      0.0000000E+00
  0.1400000      0.0000000E+00
  0.1500000      0.0000000E+00
  0.1600000      0.0000000E+00
  0.1700000      0.0000000E+00
  0.1800000      0.0000000E+00
  0.1900000      0.0000000E+00
  0.2000000      0.0000000E+00
  0.2100000      0.0000000E+00
  0.2200000      0.0000000E+00
  0.2300000      0.0000000E+00
  0.2400000      0.0000000E+00
  0.2500000      0.0000000E+00
  0.2600000      0.0000000E+00
  0.2700000      0.0000000E+00
  0.2800000      0.0000000E+00
  0.2900000      0.0000000E+00
  0.3000000      0.0000000E+00
  0.3100000      0.0000000E+00
  0.3200000      0.0000000E+00
  0.3300000      0.0000000E+00
  0.3400000      0.0000000E+00
  0.3500000      0.0000000E+00
  0.3600000      0.0000000E+00
  0.3700000      0.0000000E+00
  0.3800000      0.0000000E+00
  0.3900000      0.0000000E+00
  0.4000000      0.0000000E+00
  0.4100000      0.0000000E+00
  0.4200000      0.0000000E+00
  0.4300000      0.0000000E+00
  0.4400000      0.0000000E+00
  0.4500000      0.0000000E+00
  0.4600000      0.0000000E+00
  0.4700000      0.0000000E+00
  0.4800000      0.0000000E+00
  0.4900000      0.0000000E+00
  0.5000000      0.0000000E+00
  0.5100000      0.0000000E+00
  0.5200000      0.0000000E+00
  0.5300000      0.0000000E+00
  0.5400000      0.0000000E+00
  0.5500000      0.0000000E+00
  0.5600000      0.0000000E+00
  0.5700000      0.0000000E+00
  0.5800000      0.0000000E+00
  0.5900000      0.0000000E+00
  0.6000000      0.0000000E+00
  0.6100000      0.0000000E+00
  0.6200000      0.0000000E+00
  0.6300000      0.0000000E+00
  0.6400000      0.0000000E+00
  0.6500000      0.0000000E+00
  0.6600000      0.0000000E+00
  0.6700000      0.0000000E+00
  0.6800000      0.0000000E+00
  0.6900000      0.0000000E+00
  0.7000000      0.0000000E+00
  0.7100000      0.0000000E+00
  0.7200000      0.0000000E+00
  0.7300000      0.0000000E+00
  0.7400000      0.0000000E+00
  0.7500000      0.0000000E+00
  0.7600000      0.0000000E+00
  0.7700000      0.0000000E+00
  0.7800000      0.0000000E+00
  0.7900000      0.0000000E+00
  0.8000000      0.0000000E+00
  0.8100000      0.0000000E+00
  0.8200000      0.0000000E+00
  0.8300000      0.0000000E+00
  0.8400000      0.0000000E+00
  0.8500000      0.0000000E+00
  0.8600000      0.0000000E+00
  0.8700000      0.0000000E+00
  0.8800000      0.0000000E+00
  0.8900000      0.0000000E+00
  0.9000000      0.0000000E+00
  0.9100000      0.0000000E+00
  0.9200000      0.0000000E+00
  0.9300000      0.0000000E+00
  0.9400000      0.0000000E+00
  0.9500000      0.0000000E+00
  0.9600000      0.0000000E+00
  0.9700000      0.0000000E+00
  0.9800000      0.0000000E+00
  0.9900000      0.0000000E+00
   1.000000      0.0000000E+00
   1.010000      0.0000000E+00
   1.020000      0.0000000E+00
   1.030000      0.0000000E+00
   1.040000      0.0000000E+00
   1.050000      0.0000000E+00
   1.060000      0.0000000E+00
   1.070000      0.0000000E+00
   1.080000      0.0000000E+00
   1.090000      0.0000000E+00
   1.100000      0.0000000E+00
   1.110000      0.0000000E+00
   1.120000      0.0000000E+00
   1.130000      0.0000000E+00
   1.140000      0.0000000E+00
   1.150000      0.0000000E+00
   1.160000      0.0000000E+00
   1.170000      0.0000000E+00
   1.180000      0.0000000E+00
   1.190000      0.0000000E+00
   1.200000      0.0000000E+00
   1.210000      0.0000000E+00
   1.220000      0.0000000E+00
   1.230000      0.0000000E+00
   1.240000      0.0000000E+00
   1.250000      0.0000000E+00
   1.260000      0.0000000E+00
   1.270000      0.0000000E+00
   1.280000      0.0000000E+00
   1.290000      0.0000000E+00
   1.300000      0.0000000E+00
   1.310000      0.0000000E+00
   1.320000      0.0000000E+00
   1.330000      0.0000000E+00
   1.340000      0.0000000E+00
   1.350000      0.0000000E+00
   1.360000      0.0000000E+00
   1.370000      0.0000000E+00
   1.380000      0.0000000E+00
   1.390000      0.0000000E+00
   1.400000      0.0000000E+00
   1.410000      0.0000000E+00
   1.420000      0.0000000E+00
   1.430000      0.0000000E+00
   1.440000      0.0000000E+00
   1.450000      0.0000000E+00
   1.460000      0.0000000E+00
   1.470000      0.0000000E+00
   1.480000      0.0000000E+00
   1.490000      0.0000000E+00
   1.500000      0.0000000E+00
   1.510000      0.0000000E+00
   1.520000      0.0000000E+00
   1.530000      0.0000000E+00
   1.540000      0.0000000E+00
   1.550000      0.0000000E+00
   1.560000      0.0000000E+00
   1.570000      0.0000000E+00
   1.580000      0.0000000E+00
   1.590000      0.0000000E+00
   1.600000      0.0000000E+00
   1.610000      0.0000000E+00
   1.620000      0.0000000E+00
   1.630000      0.0000000E+00
   1.640000      0.0000000E+00
   1.650000      0.0000000E+00
   1.660000      0.0000000E+00
   1.670000      0.0000000E+00
   1.680000      0.0000000E+00
   1.690000      0.0000000E+00
   1.700000      0.0000000E+00
   1.710000      0.0000000E+00
   1.720000      0.0000000E+00
   1.730000      0.0000000E+00
   1.740000      0.0000000E+00
   1.750000      0.0000000E+00
   1.760000      0.0000000E+00
   1.770000      0.0000000E+00
   1.780000      0.0000000E+00
   1.790000      0.0000000E+00
   1.800000      0.0000000E+00
   1.810000      0.0000000E+00
   1.820000      0.0000000E+00
   1.830000      0.0000000E+00
   1.840000      0.0000000E+00
   1.850000      0.0000000E+00
   1.860000      0.0000000E+00
   1.870000      0.0000000E+00
   1.880000      0.0000000E+00
   1.890000      0.0000000E+00
   1.900000      0.0000000E+00
   1.910000      0.0000000E+00
   1.920000      0.0000000E+00
   1.930000      0.0000000E+00
   1.940000      0.0000000E+00
   1.950000      0.0000000E+00
   1.960000      0.0000000E+00
   1.970000      0.0000000E+00
   1.980000      0.0000000E+00
   1.990000      0.0000000E+00
   2.000000      0.0000000E+00
   2.010000      0.0000000E+00
   2.020000      0.0000000E+00
   2.030000      0.0000000E+00
   2.040000      0.0000000E+00
   2.050000      0.0000000E+00
   2.060000      0.0000000E+00
   2.070000      0.0000000E+00
   2.080000      0.0000000E+00
   2.090000      0.0000000E+00
   2.100000      0.0000000E+00
   2.110000      0.0000000E+00
   2.120000      0.0000000E+00
   2.130000      0.0000000E+00
   2.140000      0.0000000E+00
   2.150000      0.0000000E+00
   2.160000      0.0000000E+00
   2.170000      0.0000000E+00
   2.180000      0.0000000E+00
   2.190000      0.0000000E+00
   2.200000      0.0000000E+00
   2.210000      0.0000000E+00
   2.220000      0.0000000E+00
   2.230000      0.0000000E+00
   2.240000      0.0000000E+00
   2.250000      0.0000000E+00
   2.260000      0.0000000E+00
   2.270000      0.0000000E+00
   2.280000      0.0000000E+00
   2.290000      0.0000000E+00
   2.300000      0.0000000E+00
   2.310000      1.3497736E-38
   2.320000      1.7724296E-38
   2.330000      2.1799981E-38
   2.340000      2.5260655E-38
   2.350000      2.8341133E-38
   2.360000      3.1545953E-38
   2.370000      3.4794154E-38
   2.380000      3.8021235E-38
   2.390000      4.1202404E-38
   2.400000      4.4432425E-38
   2.410000      4.7605136E-38
   2.420000      5.0670112E-38
   2.430000      5.1972933E-38
   2.440000      5.1347427E-38
   2.450000      5.0166053E-38
   2.460000      4.6825097E-38
   2.470000      4.0429582E-38
   2.480000      3.1806496E-38
   2.490000      2.1241906E-38
   2.500000      0.0000000E+00
   2.510000      0.0000000E+00
   2.520000     -3.1375978E-38
   2.530000     -5.4852192E-38
   2.540000     -8.1090883E-38
   2.550000     -1.0519258E-37
   2.560000     -1.2716475E-37
   2.570000     -1.5159953E-37
   2.580000     -1.7803430E-37
   2.590000     -2.0592292E-37
   2.600000     -2.3540821E-37
   2.610000     -2.6468042E-37
   2.620000     -2.9374684E-37
   2.630000     -3.2672601E-37
   2.640000     -3.6414767E-37
   2.650000     -4.0457751E-37
   2.660000     -4.4847439E-37
   2.670000     -4.9798237E-37
   2.680000     -5.5095616E-37
   2.690000     -6.0325639E-37
   2.700000     -6.5249156E-37
   2.710000     -6.9754440E-37
   2.720000     -7.3767356E-37
   2.730000     -7.7193546E-37
   2.740000     -7.9999676E-37
   2.750000     -9.2238523E-37
   2.760000     -1.1507771E-36
   2.770000     -1.3916020E-36
   2.780000     -1.6422205E-36
   2.790000     -1.8991912E-36
   2.800000     -2.0342316E-36
   2.810000     -2.0543161E-36
   2.820000     -2.0396728E-36
   2.830000     -1.9590074E-36
   2.840000     -1.8344323E-36
   2.850000     -1.6645655E-36
   2.860000     -1.2802039E-36
   2.870000     -6.8264647E-37
   2.880000     -3.2565846E-38
   2.890000      6.6232213E-37
   2.900000      1.3255347E-36
   2.910000      1.9361019E-36
   2.920000      2.4805564E-36
   2.930000      2.9461204E-36
   2.940000      3.3510475E-36
   2.950000      3.6945058E-36
   2.960000      3.9336314E-36
   2.970000      4.1689932E-36
   2.980000      4.4931980E-36
   2.990000      4.8298723E-36
   3.000000      5.1790294E-36
   3.010000      5.5466326E-36
   3.020000      5.9202635E-36
   3.030000      6.3067288E-36
   3.040000      6.7748667E-36
   3.050000      7.4022093E-36
   3.060000      8.2085400E-36
   3.070000      9.1253381E-36
   3.080000      1.0100023E-35
   3.090000      1.1068778E-35
   3.100000      1.2060757E-35
   3.110000      1.3081665E-35
   3.120000      1.3868715E-35
   3.130000      1.4366003E-35
   3.140000      1.4702559E-35
   3.150000      1.4879905E-35
   3.160000      1.4852975E-35
   3.170000      1.4590749E-35
   3.180000      1.4066945E-35
   3.190000      1.3285870E-35
   3.200000      1.2252993E-35
   3.210000      1.0934168E-35
   3.220000      9.3377034E-36
   3.230000      7.4656375E-36
   3.240000      5.3811558E-36
   3.250000      3.0378257E-36
   3.260000      3.2754116E-37
   3.270000     -2.7069657E-36
   3.280000     -6.0166725E-36
   3.290000     -9.6348135E-36
   3.300000     -1.3659617E-35
   3.310000     -1.8101323E-35
   3.320000     -2.2900985E-35
   3.330000     -2.8000915E-35
   3.340000     -3.3424393E-35
   3.350000     -3.9045793E-35
   3.360000     -4.4684283E-35
   3.370000     -5.0340500E-35
   3.380000     -5.5967639E-35
   3.390000     -6.1417031E-35
   3.400000     -6.6475618E-35
   3.410000     -7.1088532E-35
   3.420000     -7.5362745E-35
   3.430000     -8.0017726E-35
   3.440000     -8.4737628E-35
   3.450000     -8.8901484E-35
   3.460000     -9.2475664E-35
   3.470000     -9.4793563E-35
   3.480000     -9.6332393E-35
   3.490000     -9.7513019E-35
   3.500000     -9.7986580E-35
   3.510000     -9.7929114E-35
   3.520000     -9.7525555E-35
   3.530000     -9.7815307E-35
   3.540000     -9.8317578E-35
   3.550000     -9.7748818E-35
   3.560000     -9.6214827E-35
   3.570000     -9.4853796E-35
   3.580000     -9.5596005E-35
   3.590000     -9.7032685E-35
   3.600000     -9.5664175E-35
   3.610000     -9.1152051E-35
   3.620000     -8.4659511E-35
   3.630000     -7.6518018E-35
   3.640000     -6.6679814E-35
   3.650000     -5.2183621E-35
   3.660000     -3.0443599E-35
   3.670000     -4.1819467E-36
   3.680000      2.5629964E-35
   3.690000      5.8586971E-35
   3.700000      9.3262218E-35
   3.710000      1.2939788E-34
   3.720000      1.6533511E-34
   3.730000      1.9835815E-34
   3.740000      2.2933367E-34
   3.750000      2.6058981E-34
   3.760000      2.9229264E-34
   3.770000      3.2530697E-34
   3.780000      3.5715734E-34
   3.790000      3.9087557E-34
   3.800000      4.2789464E-34
   3.810000      4.6680391E-34
   3.820000      5.0937518E-34
   3.830000      5.5387159E-34
   3.840000      5.9528104E-34
   3.850000      6.3371699E-34
   3.860000      6.7408632E-34
   3.870000      7.1111388E-34
   3.880000      7.4190192E-34
   3.890000      7.6887772E-34
   3.900000      7.9113451E-34
   3.910000      8.0499754E-34
   3.920000      8.1126853E-34
   3.930000      8.1353925E-34
   3.940000      8.1332390E-34
   3.950000      8.1067270E-34
   3.960000      8.0551366E-34
   3.970000      7.9427060E-34
   3.980000      7.7367723E-34
   3.990000      7.4498773E-34
   4.000000      7.0448028E-34
   4.010000      6.5138940E-34
   4.020000      5.8771646E-34
   4.030000      5.1319709E-34
   4.040000      4.2768746E-34
   4.050000      3.3181134E-34
   4.060000      2.2596746E-34
   4.070000      1.0938139E-34
   4.080000     -1.4895129E-35
   4.090000     -1.4682602E-34
   4.100000     -2.9053346E-34
   4.110000     -4.4626752E-34
   4.120000     -6.1249014E-34
   4.130000     -7.8974771E-34
   4.140000     -9.8022518E-34
   4.150000     -1.1797434E-33
   4.160000     -1.3877315E-33
   4.170000     -1.6063068E-33
   4.180000     -1.8327312E-33
   4.190000     -2.0647496E-33
   4.200000     -2.3001680E-33
   4.210000     -2.5379641E-33
   4.220000     -2.7822293E-33
   4.230000     -3.0326516E-33
   4.240000     -3.2839495E-33
   4.250000     -3.5347262E-33
   4.260000     -3.7860741E-33
   4.270000     -4.0360756E-33
   4.280000     -4.2816485E-33
   4.290000     -4.5207797E-33
   4.300000     -4.7497223E-33
   4.310000     -4.9658601E-33
   4.320000     -5.1666999E-33
   4.330000     -5.3498074E-33
   4.340000     -5.5121582E-33
   4.350000     -5.6504709E-33
   4.360000     -5.7596053E-33
   4.370000     -5.8400462E-33
   4.380000     -5.8891132E-33
   4.390000     -5.8990064E-33
   4.400000     -5.8693436E-33
   4.410000     -5.7993366E-33
   4.420000     -5.6858383E-33
   4.430000     -5.5259115E-33
   4.440000     -5.3137767E-33
   4.450000     -5.0456354E-33
   4.460000     -4.7209304E-33
   4.470000     -4.3373828E-33
   4.480000     -3.8925673E-33
   4.490000     -3.3859329E-33
   4.500000     -2.8131960E-33
   4.510000     -2.1717918E-33
   4.520000     -1.4625496E-33
   4.530000     -6.8373019E-34
   4.540000      1.6538954E-34
   4.550000      1.0855116E-33
   4.560000      2.0768735E-33
   4.570000      3.1393428E-33
   4.580000      4.2726094E-33
   4.590000      5.4756239E-33
   4.600000      6.7466653E-33
   4.610000      8.0848217E-33
   4.620000      9.4881599E-33
   4.630000      1.0953154E-32
   4.640000      1.2476469E-32
   4.650000      1.4054363E-32
   4.660000      1.5681684E-32
   4.670000      1.7352642E-32
   4.680000      1.9061271E-32
   4.690000      2.0800671E-32
   4.700000      2.2562997E-32
   4.710000      2.4339724E-32
   4.720000      2.6121888E-32
   4.730000      2.7899527E-32
   4.740000      2.9661672E-32
   4.750000      3.1396764E-32
   4.760000      3.3092602E-32
   4.770000      3.4736031E-32
   4.780000      3.6313133E-32
   4.790000      3.7809547E-32
   4.800000      3.9210092E-32
   4.810000      4.0498916E-32
   4.820000      4.1659552E-32
   4.830000      4.2674976E-32
   4.840000      4.3527668E-32
   4.850000      4.4200122E-32
   4.860000      4.4673387E-32
   4.870000      4.4928290E-32
   4.880000      4.4946243E-32
   4.890000      4.4707982E-32
   4.900000      4.4194397E-32
   4.910000      4.3386297E-32
   4.920000      4.2263700E-32
   4.930000      4.0809784E-32
   4.940000      3.9005979E-32
   4.950000      3.6832276E-32
   4.960000      3.4272255E-32
   4.970000      3.1309139E-32
   4.980000      2.7926875E-32
   4.990000      2.4110706E-32
   5.000000      1.9846957E-32
   5.010000      1.5122896E-32
   5.020000      9.9273540E-33
   5.030000      4.2506552E-33
   5.040000     -1.9149639E-33
   5.050000     -8.5754451E-33
   5.060000     -1.5734822E-32
   5.070000     -2.3394821E-32
   5.080000     -3.1554627E-32
   5.090000     -4.0210711E-32
   5.100000     -4.9357221E-32
   5.110000     -5.8985254E-32
   5.120000     -6.9082469E-32
   5.130000     -7.9633389E-32
   5.140000     -9.0619112E-32
   5.150000     -1.0201709E-31
   5.160000     -1.1380102E-31
   5.170000     -1.2594065E-31
   5.180000     -1.3840165E-31
   5.190000     -1.5114540E-31
   5.200000     -1.6412899E-31
   5.210000     -1.7730491E-31
   5.220000     -1.9062107E-31
   5.230000     -2.0402066E-31
   5.240000     -2.1744208E-31
   5.250000     -2.3081882E-31
   5.260000     -2.4407948E-31
   5.270000     -2.5714776E-31
   5.280000     -2.6994240E-31
   5.290000     -2.8237730E-31
   5.300000     -2.9436165E-31
   5.310000     -3.0579994E-31
   5.320000     -3.1659213E-31
   5.330000     -3.2663384E-31
   5.340000     -3.3581654E-31
   5.350000     -3.4402775E-31
   5.360000     -3.5115136E-31
   5.370000     -3.5706786E-31
   5.380000     -3.6165466E-31
   5.390000     -3.6478646E-31
   5.400000     -3.6633564E-31
   5.410000     -3.6617260E-31
   5.420000     -3.6416622E-31
   5.430000     -3.6018433E-31
   5.440000     -3.5409426E-31
   5.450000     -3.4576332E-31
   5.460000     -3.3506152E-31
   5.470000     -3.2185567E-31
   5.480000     -3.0601447E-31
   5.490000     -2.8741349E-31
   5.500000     -2.6592945E-31
   5.510000     -2.4144315E-31
   5.520000     -2.1384020E-31
   5.530000     -1.8301200E-31
   5.540000     -1.4885662E-31
   5.550000     -1.1127971E-31
   5.560000     -7.0195474E-32
   5.570000     -2.5527761E-32
   5.580000      2.2788865E-32
   5.590000      7.4808031E-32
   5.600000      1.3057039E-31
   5.610000      1.9010255E-31
   5.620000      2.5341575E-31
   5.630000      3.2050465E-31
   5.640000      3.9134626E-31
   5.650000      4.6589858E-31
   5.660000      5.4409938E-31
   5.670000      6.2586512E-31
   5.680000      7.1108959E-31
   5.690000      7.9964301E-31
   5.700000      8.9137060E-31
   5.710000      9.8609184E-31
   5.720000      1.0835993E-30
   5.730000      1.1836575E-30
   5.740000      1.2860025E-30
   5.750000      1.3903402E-30
   5.760000      1.4963467E-30
   5.770000      1.6036666E-30
   5.780000      1.7119125E-30
   5.790000      1.8206649E-30
   5.800000      1.9294713E-30
   5.810000      2.0378457E-30
   5.820000      2.1452685E-30
   5.830000      2.2511857E-30
   5.840000      2.3550096E-30
   5.850000      2.4561181E-30
   5.860000      2.5538548E-30
   5.870000      2.6475293E-30
   5.880000      2.7364173E-30
   5.890000      2.8197621E-30
   5.900000      2.8967734E-30
   5.910000      2.9666305E-30
   5.920000      3.0284814E-30
   5.930000      3.0814452E-30
   5.940000      3.1246133E-30
   5.950000      3.1570513E-30
   5.960000      3.1778013E-30
   5.970000      3.1858827E-30
   5.980000      3.1802975E-30
   5.990000      3.1600316E-30
   6.000000      3.1240570E-30
   6.010000      3.0713377E-30
   6.020000      3.0008313E-30
   6.030000      2.9114951E-30
   6.040000      2.8022883E-30
   6.050000      2.6721781E-30
   6.060000      2.5201446E-30
   6.070000      2.3451850E-30
   6.080000      2.1463201E-30
   6.090000      1.9226000E-30
   6.100000      1.6731095E-30
   6.110000      1.3969750E-30
   6.120000      1.0933703E-30
   6.130000      7.6152394E-31
   6.140000      4.0072631E-31
   6.150000      1.0336228E-32
   6.160000     -4.1021095E-31
   6.170000     -8.6139596E-31
   6.180000     -1.3436077E-30
   6.190000     -1.8571342E-30
   6.200000     -2.4021547E-30
   6.210000     -2.9787309E-30
   6.220000     -3.5867981E-30
   6.230000     -4.2261561E-30
   6.240000     -4.8964591E-30
   6.250000     -5.5972068E-30
   6.260000     -6.3277346E-30
   6.270000     -7.0872025E-30
   6.280000     -7.8745881E-30
   6.290000     -8.6886727E-30
   6.300000     -9.5280374E-30
   6.310000     -1.0391047E-29
   6.320000     -1.1275844E-29
   6.330000     -1.2180337E-29
   6.340000     -1.3102196E-29
   6.350000     -1.4038839E-29
   6.360000     -1.4987426E-29
   6.370000     -1.5944854E-29
   6.380000     -1.6907742E-29
   6.390000     -1.7872436E-29
   6.400000     -1.8834996E-29
   6.410000     -1.9791190E-29
   6.420000     -2.0736497E-29
   6.430000     -2.1666095E-29
   6.440000     -2.2574869E-29
   6.450000     -2.3457404E-29
   6.460000     -2.4307985E-29
   6.470000     -2.5120599E-29
   6.480000     -2.5888940E-29
   6.490000     -2.6606415E-29
   6.500000     -2.7266143E-29
   6.510000     -2.7860963E-29
   6.520000     -2.8383447E-29
   6.530000     -2.8825911E-29
   6.540000     -2.9180421E-29
   6.550000     -2.9438805E-29
   6.560000     -2.9592678E-29
   6.570000     -2.9633453E-29
   6.580000     -2.9552369E-29
   6.590000     -2.9340505E-29
   6.600000     -2.8988803E-29
   6.610000     -2.8488106E-29
   6.620000     -2.7829185E-29
   6.630000     -2.7002760E-29
   6.640000     -2.5999552E-29
   6.650000     -2.4810314E-29
   6.660000     -2.3425873E-29
   6.670000     -2.1837175E-29
   6.680000     -2.0035333E-29
   6.690000     -1.8011682E-29
   6.700000     -1.5757820E-29
   6.710000     -1.3265676E-29
   6.720000     -1.0527569E-29
   6.730000     -7.5362677E-30
   6.740000     -4.2850470E-30
   6.750000     -7.6776821E-31
   6.760000      3.0210555E-30
   6.770000      7.0861884E-30
   6.780000      1.1431599E-29
   6.790000      1.6060385E-29
   6.800000      2.0974692E-29
   6.810000      2.6175630E-29
   6.820000      3.1663206E-29
   6.830000      3.7436232E-29
   6.840000      4.3492247E-29
   6.850000      4.9827422E-29
   6.860000      5.6436494E-29
   6.870000      6.3312660E-29
   6.880000      7.0447520E-29
   6.890000      7.7830970E-29
   6.900000      8.5451110E-29
   6.910000      9.3294201E-29
   6.920000      1.0134455E-28
   6.930000      1.0958445E-28
   6.940000      1.1799406E-28
   6.950000      1.2655141E-28
   6.960000      1.3523225E-28
   6.970000      1.4401005E-28
   6.980000      1.5285587E-28
   6.990000      1.6173837E-28
   7.000000      1.7062373E-28
   7.010000      1.7947559E-28
   7.020000      1.8825507E-28
   7.030000      1.9692066E-28
   7.040000      2.0542828E-28
   7.050000      2.1373123E-28
   7.060000      2.2178025E-28