  -2.600000      0.0000000E+00
  -2.590000      0.0000000E+00
  -2.580000      0.0000000E+00
  -2.570000      0.0000000E+00
  -2.560000      0.0000000E+00
  -2.550000      0.0000000E+00
  -2.540000      0.0000000E+00
  -2.530000      0.0000000E+00
  -2.520000      0.0000000E+00
  -2.510000      0.0000000E+00
  -2.500000      0.0000000E+00
  -2.490000      0.0000000E+00
  -2.480000      0.0000000E+00
  -2.470000      0.0000000E+00
  -2.460000      0.0000000E+00
  -2.450000      0.0000000E+00
  -2.440000      0.0000000E+00
  -2.430000      0.0000000E+00
  -2.420000      0.0000000E+00
  -2.410000      0.0000000E+00
  -2.400000      0.0000000E+00
  -2.390000      0.0000000E+00
  -2.380000      0.0000000E+00
  -2.370000      0.0000000E+00
  -2.360000      0.0000000E+00
  -2.350000      0.0000000E+00
  -2.340000      0.0000000E+00
  -2.330000      0.0000000E+00
  -2.320000      0.0000000E+00
  -2.310000      0.0000000E+00
  -2.300000      0.0000000E+00
  -2.290000      0.0000000E+00
  -2.280000      0.0000000E+00
  -2.270000      0.0000000E+00
  -2.260000      0.0000000E+00
  -2.250000      0.0000000E+00
  -2.240000      0.0000000E+00
  -2.230000      0.0000000E+00
  -2.220000      0.0000000E+00
  -2.210000      0.0000000E+00
  -2.200000      0.0000000E+00
  -2.190000      0.0000000E+00
  -2.180000      0.0000000E+00
  -2.170000      0.0000000E+00
  -2.160000      0.0000000E+00
  -2.150000      0.0000000E+00
  -2.140000      0.0000000E+00
  -2.130000      0.0000000E+00
  -2.120000      0.0000000E+00
  -2.110000      0.0000000E+00
  -2.100000      0.0000000E+00
  -2.090000      0.0000000E+00
  -2.080000      0.0000000E+00
  -2.070000      0.0000000E+00
  -2.060000      0.0000000E+00
  -2.050000      0.0000000E+00
  -2.040000      0.0000000E+00
  -2.030000      0.0000000E+00
  -2.020000      0.0000000E+00
  -2.010000      0.0000000E+00
  -2.000000      0.0000000E+00
  -1.990000      0.0000000E+00
  -1.980000      0.0000000E+00
  -1.970000      0.0000000E+00
  -1.960000      0.0000000E+00
  -1.950000      0.0000000E+00
  -1.940000      0.0000000E+00
  -1.930000      0.0000000E+00
  -1.920000      0.0000000E+00
  -1.910000      0.0000000E+00
  -1.900000      0.0000000E+00
  -1.890000      0.0000000E+00
  -1.880000      0.0000000E+00
  -1.870000      0.0000000E+00
  -1.860000      0.0000000E+00
  -1.850000      0.0000000E+00
  -1.840000      0.0000000E+00
  -1.830000      0.0000000E+00
  -1.820000      0.0000000E+00
  -1.810000      0.0000000E+00
  -1.800000      0.0000000E+00
  -1.790000      0.0000000E+00
  -1.780000      0.0000000E+00
  -1.770000      0.0000000E+00
  -1.760000      0.0000000E+00
  -1.750000      0.0000000E+00
  -1.740000      0.0000000E+00
  -1.730000      0.0000000E+00
  -1.720000      0.0000000E+00
  -1.710000      0.0000000E+00
  -1.700000      0.0000000E+00
  -1.690000      0.0000000E+00
  -1.680000      0.0000000E+00
  -1.670000      0.0000000E+00
  -1.660000      0.0000000E+00
  -1.650000      0.0000000E+00
  -1.640000      0.0000000E+00
  -1.630000      0.0000000E+00
  -1.620000      0.0000000E+00
  -1.610000      0.0000000E+00
  -1.600000      0.0000000E+00
  -1.590000      0.0000000E+00
  -1.580000      0.0000000E+00
  -1.570000      0.0000000E+00
  -1.560000      0.0000000E+00
  -1.550000      0.0000000E+00
  -1.540000      0.0000000E+00
  -1.530000      0.0000000E+00
  -1.520000      0.0000000E+00
  -1.510000      0.0000000E+00
  -1.500000      0.0000000E+00
  -1.490000      0.0000000E+00
  -1.480000      0.0000000E+00
  -1.470000      0.0000000E+00
  -1.460000      0.0000000E+00
  -1.450000      0.0000000E+00
  -1.440000      0.0000000E+00
  -1.430000      0.0000000E+00
  -1.420000      0.0000000E+00
  -1.410000      0.0000000E+00
  -1.400000      0.0000000E+00
  -1.390000      0.0000000E+00
  -1.380000      0.0000000E+00
  -1.370000      0.0000000E+00
  -1.360000      0.0000000E+00
  -1.350000      0.0000000E+00
  -1.340000      0.0000000E+00
  -1.330000      0.0000000E+00
  -1.320000      0.0000000E+00
  -1.310000      0.0000000E+00
  -1.300000      0.0000000E+00
  -1.290000      0.0000000E+00
  -1.280000      0.0000000E+00
  -1.270000      0.0000000E+00
  -1.260000      0.0000000E+00
  -1.250000      0.0000000E+00
  -1.240000      0.0000000E+00
  -1.230000      0.0000000E+00
  -1.220000      0.0000000E+00
  -1.210000      0.0000000E+00
  -1.200000      0.0000000E+00
  -1.190000      0.0000000E+00
  -1.180000      0.0000000E+00
  -1.170000      0.0000000E+00
  -1.160000      0.0000000E+00
  -1.150000      0.0000000E+00
  -1.140000      0.0000000E+00
  -1.130000      0.0000000E+00
  -1.120000      0.0000000E+00
  -1.110000      0.0000000E+00
  -1.100000      0.0000000E+00
  -1.090000      0.0000000E+00
  -1.080000      0.0000000E+00
  -1.070000      0.0000000E+00
  -1.060000      0.0000000E+00
  -1.050000      0.0000000E+00
  -1.040000      0.0000000E+00
  -1.030000      0.0000000E+00
  -1.020000      0.0000000E+00
  -1.010000      0.0000000E+00
  -1.000000      0.0000000E+00
 -0.9900000      0.0000000E+00
 -0.9800000      0.0000000E+00
 -0.9700000      0.0000000E+00
 -0.9600000      0.0000000E+00
 -0.9500000      0.0000000E+00
 -0.9400000      0.0000000E+00
 -0.9300000      0.0000000E+00
 -0.9200000      0.0000000E+00
 -0.9100000      0.0000000E+00
 -0.9000000      0.0000000E+00
 -0.8900000      0.0000000E+00
 -0.8800000      0.0000000E+00
 -0.8700000      0.0000000E+00
 -0.8600000      0.0000000E+00
 -0.8500000      0.0000000E+00
 -0.8400000      0.0000000E+00
 -0.8300000      0.0000000E+00
 -0.8200000      0.0000000E+00
 -0.8100000      0.0000000E+00
 -0.8000000      0.0000000E+00
 -0.7900000      0.0000000E+00
 -0.7800000      0.0000000E+00
 -0.7700000      0.0000000E+00
 -0.7600000      0.0000000E+00
 -0.7500000      0.0000000E+00
 -0.7400000      0.0000000E+00
 -0.7300000      0.0000000E+00
 -0.7200000      0.0000000E+00
 -0.7100000      0.0000000E+00
 -0.7000000      0.0000000E+00
 -0.6900000      0.0000000E+00
 -0.6800000      0.0000000E+00
 -0.6700000      0.0000000E+00
 -0.6600000      0.0000000E+00
 -0.6500000      0.0000000E+00
 -0.6400000      0.0000000E+00
 -0.6300000      0.0000000E+00
 -0.6200000      0.0000000E+00
 -0.6100000      0.0000000E+00
 -0.6000000      0.0000000E+00
 -0.5900000      0.0000000E+00
 -0.5800000      0.0000000E+00
 -0.5700000      0.0000000E+00
 -0.5600000      0.0000000E+00
 -0.5500000      0.0000000E+00
 -0.5400000      0.0000000E+00
 -0.5300000      0.0000000E+00
 -0.5200000      0.0000000E+00
 -0.5100000      0.0000000E+00
 -0.5000000      0.0000000E+00
 -0.4900000      0.0000000E+00
 -0.4800000      0.0000000E+00
 -0.4700000      0.0000000E+00
 -0.4600000      0.0000000E+00
 -0.4500000      0.0000000E+00
 -0.4400000      0.0000000E+00
 -0.4300000      0.0000000E+00
 -0.4200000      0.0000000E+00
 -0.4100000      0.0000000E+00
 -0.4000000      0.0000000E+00
 -0.3900000      0.0000000E+00
 -0.3800000      0.0000000E+00
 -0.3700000      0.0000000E+00
 -0.3600000      0.0000000E+00
 -0.3500000      0.0000000E+00
 -0.3400000      0.0000000E+00
 -0.3300000      0.0000000E+00
 -0.3200000      0.0000000E+00
 -0.3100000      0.0000000E+00
 -0.3000000      0.0000000E+00
 -0.2900000      0.0000000E+00
 -0.2800000      0.0000000E+00
 -0.2700000      0.0000000E+00
 -0.2600000      0.0000000E+00
 -0.2500000      0.0000000E+00
 -0.2400000      0.0000000E+00
 -0.2300000      0.0000000E+00
 -0.2200000      0.0000000E+00
 -0.2100000      0.0000000E+00
 -0.2000000      0.0000000E+00
 -0.1900000      0.0000000E+00
 -0.1800000      0.0000000E+00
 -0.1700000      0.0000000E+00
 -0.1600000      0.0000000E+00
 -0.1500000      0.0000000E+00
 -0.1400000      0.0000000E+00
 -0.1300000      0.0000000E+00
 -0.1200000      0.0000000E+00
 -0.1100000      0.0000000E+00
 -0.1000000      0.0000000E+00
 -9.0000004E-02  0.0000000E+00
 -7.9999998E-02  0.0000000E+00
 -7.0000000E-02  0.0000000E+00
 -5.9999999E-02  0.0000000E+00
 -5.0000001E-02  0.0000000E+00
 -3.9999999E-02  0.0000000E+00
 -2.9999999E-02  0.0000000E+00
 -2.0000000E-02  0.0000000E+00
 -9.9999998E-03  0.0000000E+00
 -3.4694470E-17  0.0000000E+00
  9.9999998E-03  0.0000000E+00
  2.0000000E-02  0.0000000E+00
  2.9999999E-02  0.0000000E+00
  3.9999999E-02  0.0000000E+00
  5.0000001E-02  0.0000000E+00
  5.9999999E-02  0.0000000E+00
  7.0000000E-02  0.0000000E+00
  7.9999998E-02  0.0000000E+00
  9.0000004E-02  0.0000000E+00
  0.1000000      0.0000000E+00
  0.1100000      0.0000000E+00
  0.1200000      0.0000000E+00
  0.1300000      0.0000000E+00
  0.1400000      0.0000000E+00
  0.1500000      0.0000000E+00
  0.1600000      0.0000000E+00
  0.1700000      0.0000000E+00
  0.1800000      0.0000000E+00
  0.1900000      0.0000000E+00
  0.2000000      0.0000000E+00
  0.2100000      0.0000000E+00
  0.2200000      0.0000000E+00
  0.2300000      0.0000000E+00
  0.2400000      0.0000000E+00
  0.2500000      0.0000000E+00
  0.2600000      0.0000000E+00
  0.2700000      0.0000000E+00
  0.2800000      0.0000000E+00
  0.2900000      0.0000000E+00
  0.3000000      0.0000000E+00
  0.3100000      0.0000000E+00
  0.3200000      0.0000000E+00
  0.3300000      0.0000000E+00
  0.3400000      0.0000000E+00
  0.3500000      0.0000000E+00
  0.3600000      0.0000000E+00
  0.3700000      0.0000000E+00
  0.3800000      0.0000000E+00
  0.3900000      0.0000000E+00
  0.4000000      0.0000000E+00
  0.4100000      0.0000000E+00
  0.4200000      0.0000000E+00
  0.4300000      0.0000000E+00
  0.4400000      0.0000000E+00
  0.4500000      0.0000000E+00
  0.4600000      0.0000000E+00
  0.4700000      0.0000000E+00
  0.4800000      0.0000000E+00
  0.4900000      0.0000000E+00
  0.5000000      0.0000000E+00
  0.5100000      0.0000000E+00
  0.5200000      0.0000000E+00
  0.5300000      0.0000000E+00
  0.5400000      0.0000000E+00
  0.5500000      0.0000000E+00
  0.5600000      0.0000000E+00
  0.5700000      0.0000000E+00
  0.5800000      0.0000000E+00
  0.5900000      0.0000000E+00
  0.6000000      0.0000000E+00
  0.6100000      0.0000000E+00
  0.6200000      0.0000000E+00
  0.6300000      0.0000000E+00
  0.6400000      0.0000000E+00
  0.6500000      0.0000000E+00
  0.6600000      0.0000000E+00
  0.6700000      0.0000000E+00
  0.6800000      0.0000000E+00
  0.6900000      0.0000000E+00
  0.7000000      0.0000000E+00
  0.7100000      0.0000000E+00
  0.7200000      0.0000000E+00
  0.7300000      0.0000000E+00
  0.7400000      0.0000000E+00
  0.7500000      0.0000000E+00
  0.7600000      0.0000000E+00
  0.7700000      0.0000000E+00
  0.7800000      0.0000000E+00
  0.7900000      0.0000000E+00
  0.8000000      0.0000000E+00
  0.8100000      0.0000000E+00
  0.8200000      0.0000000E+00
  0.8300000      0.0000000E+00
  0.8400000      0.0000000E+00
  0.8500000      0.0000000E+00
  0.8600000      0.0000000E+00
  0.8700000      0.0000000E+00
  0.8800000      0.0000000E+00
  0.8900000      0.0000000E+00
  0.9000000      0.0000000E+00
  0.9100000      0.0000000E+00
  0.9200000      0.0000000E+00
  0.9300000      0.0000000E+00
  0.9400000      0.0000000E+00
  0.9500000      0.0000000E+00
  0.9600000      0.0000000E+00
  0.9700000      0.0000000E+00
  0.9800000      0.0000000E+00
  0.9900000      0.0000000E+00
   1.000000      0.0000000E+00
   1.010000      0.0000000E+00
   1.020000      0.0000000E+00
   1.030000      0.0000000E+00
   1.040000      0.0000000E+00
   1.050000      0.0000000E+00
   1.060000      0.0000000E+00
   1.070000      0.0000000E+00
   1.080000      0.0000000E+00
   1.090000      0.0000000E+00
   1.100000      0.0000000E+00
   1.110000      0.0000000E+00
   1.120000      0.0000000E+00
   1.130000      0.0000000E+00
   1.140000      0.0000000E+00
   1.150000      0.0000000E+00
   1.160000      0.0000000E+00
   1.170000      0.0000000E+00
   1.180000      0.0000000E+00
   1.190000      0.0000000E+00
   1.200000      0.0000000E+00
   1.210000      0.0000000E+00
   1.220000      0.0000000E+00
   1.230000      0.0000000E+00
   1.240000      0.0000000E+00
   1.250000      0.0000000E+00
   1.260000      0.0000000E+00
   1.270000      0.0000000E+00
   1.280000      0.0000000E+00
   1.290000      0.0000000E+00
   1.300000      0.0000000E+00
   1.310000      0.0000000E+00
   1.320000      0.0000000E+00
   1.330000      0.0000000E+00
   1.340000      0.0000000E+00
   1.350000      0.0000000E+00
   1.360000      0.0000000E+00
   1.370000      0.0000000E+00
   1.380000      0.0000000E+00
   1.390000      0.0000000E+00
   1.400000      0.0000000E+00
   1.410000      0.0000000E+00
   1.420000      0.0000000E+00
   1.430000      0.0000000E+00
   1.440000      0.0000000E+00
   1.450000      0.0000000E+00
   1.460000      0.0000000E+00
   1.470000      0.0000000E+00
   1.480000      0.0000000E+00
   1.490000      0.0000000E+00
   1.500000      0.0000000E+00
   1.510000      0.0000000E+00
   1.520000      0.0000000E+00
   1.530000      0.0000000E+00
   1.540000      0.0000000E+00
   1.550000      0.0000000E+00
   1.560000      0.0000000E+00
   1.570000      0.0000000E+00
   1.580000      0.0000000E+00
   1.590000      0.0000000E+00
   1.600000      0.0000000E+00
   1.610000      0.0000000E+00
   1.620000      0.0000000E+00
   1.630000      0.0000000E+00
   1.640000      0.0000000E+00
   1.650000      0.0000000E+00
   1.660000      0.0000000E+00
   1.670000      0.0000000E+00
   1.680000      0.0000000E+00
   1.690000      0.0000000E+00
   1.700000      0.0000000E+00
   1.710000      0.0000000E+00
   1.720000      0.0000000E+00
   1.730000      0.0000000E+00
   1.740000      0.0000000E+00
   1.750000      0.0000000E+00
   1.760000      0.0000000E+00
   1.770000      0.0000000E+00
   1.780000      0.0000000E+00
   1.790000      0.0000000E+00
   1.800000      0.0000000E+00
   1.810000      0.0000000E+00
   1.820000      0.0000000E+00
   1.830000      0.0000000E+00
   1.840000      0.0000000E+00
   1.850000      0.0000000E+00
   1.860000      0.0000000E+00
   1.870000      0.0000000E+00
   1.880000      0.0000000E+00
   1.890000      0.0000000E+00
   1.900000      0.0000000E+00
   1.910000      0.0000000E+00
   1.920000      0.0000000E+00
   1.930000      0.0000000E+00
   1.940000      0.0000000E+00
   1.950000      0.0000000E+00
   1.960000      0.0000000E+00
   1.970000      0.0000000E+00
   1.980000      0.0000000E+00
   1.990000      0.0000000E+00
   2.000000      0.0000000E+00
   2.010000      0.0000000E+00
   2.020000      0.0000000E+00
   2.030000      0.0000000E+00
   2.040000      0.0000000E+00
   2.050000      0.0000000E+00
   2.060000      0.0000000E+00
   2.070000      0.0000000E+00
   2.080000      0.0000000E+00
   2.090000      0.0000000E+00
   2.100000      0.0000000E+00
   2.110000      0.0000000E+00
   2.120000      0.0000000E+00
   2.130000      0.0000000E+00
   2.140000      0.0000000E+00
   2.150000      0.0000000E+00
   2.160000      0.0000000E+00
   2.170000      0.0000000E+00
   2.180000      0.0000000E+00
   2.190000      0.0000000E+00
   2.200000      0.0000000E+00
   2.210000      0.0000000E+00
   2.220000      0.0000000E+00
   2.230000      0.0000000E+00
   2.240000      0.0000000E+00
   2.250000      0.0000000E+00
   2.260000      0.0000000E+00
   2.270000      0.0000000E+00
   2.280000      0.0000000E+00
   2.290000      0.0000000E+00
   2.300000      0.0000000E+00
   2.310000      0.0000000E+00
   2.320000      0.0000000E+00
   2.330000      0.0000000E+00
   2.340000      0.0000000E+00
   2.350000      0.0000000E+00
   2.360000      0.0000000E+00
   2.370000      0.0000000E+00
   2.380000      0.0000000E+00
   2.390000      0.0000000E+00
   2.400000      0.0000000E+00
   2.410000      0.0000000E+00
   2.420000      0.0000000E+00
   2.430000      0.0000000E+00
   2.440000      0.0000000E+00
   2.450000      0.0000000E+00
   2.460000      0.0000000E+00
   2.470000      0.0000000E+00
   2.480000      0.0000000E+00
   2.490000      0.0000000E+00
   2.500000      0.0000000E+00
   2.510000      0.0000000E+00
   2.520000      0.0000000E+00
   2.530000      0.0000000E+00
   2.540000      0.0000000E+00
   2.550000      0.0000000E+00
   2.560000      0.0000000E+00
   2.570000      0.0000000E+00
   2.580000      0.0000000E+00
   2.590000      0.0000000E+00
   2.600000      0.0000000E+00
   2.610000      0.0000000E+00
   2.620000      0.0000000E+00
   2.630000      0.0000000E+00
   2.640000      0.0000000E+00
   2.650000      0.0000000E+00
   2.660000      0.0000000E+00
   2.670000      0.0000000E+00
   2.680000      0.0000000E+00
   2.690000      0.0000000E+00
   2.700000      0.0000000E+00
   2.710000      0.0000000E+00
   2.720000      0.0000000E+00
   2.730000      0.0000000E+00
   2.740000      0.0000000E+00
   2.750000      0.0000000E+00
   2.760000      0.0000000E+00
   2.770000      0.0000000E+00
   2.780000      0.0000000E+00
   2.790000      0.0000000E+00
   2.800000      0.0000000E+00
   2.810000      0.0000000E+00
   2.820000      0.0000000E+00
   2.830000      0.0000000E+00
   2.840000      0.0000000E+00
   2.850000      0.0000000E+00
   2.860000      0.0000000E+00
   2.870000      0.0000000E+00
   2.880000      0.0000000E+00
   2.890000      0.0000000E+00
   2.900000      0.0000000E+00
   2.910000      0.0000000E+00
   2.920000      0.0000000E+00
   2.930000      0.0000000E+00
   2.940000      0.0000000E+00
   2.950000      0.0000000E+00
   2.960000      0.0000000E+00
   2.970000      0.0000000E+00
   2.980000      0.0000000E+00
   2.990000      0.0000000E+00
   3.000000      0.0000000E+00
   3.010000      0.0000000E+00
   3.020000      0.0000000E+00
   3.030000      0.0000000E+00
   3.040000      0.0000000E+00
   3.050000      0.0000000E+00
   3.060000      0.0000000E+00
   3.070000      0.0000000E+00
   3.080000      0.0000000E+00
   3.090000      0.0000000E+00
   3.100000      0.0000000E+00
   3.110000      0.0000000E+00
   3.120000      0.0000000E+00
   3.130000      0.0000000E+00
   3.140000      0.0000000E+00
   3.150000      0.0000000E+00
   3.160000      0.0000000E+00
   3.170000      0.0000000E+00
   3.180000      0.0000000E+00
   3.190000      0.0000000E+00
   3.200000      0.0000000E+00
   3.210000      0.0000000E+00
   3.220000      0.0000000E+00
   3.230000      0.0000000E+00
   3.240000      0.0000000E+00
   3.250000      0.0000000E+00
   3.260000      0.0000000E+00
   3.270000      0.0000000E+00
   3.280000      0.0000000E+00
   3.290000      0.0000000E+00
   3.300000      0.0000000E+00
   3.310000      0.0000000E+00
   3.320000      0.0000000E+00
   3.330000      0.0000000E+00
   3.340000      0.0000000E+00
   3.350000      0.0000000E+00
   3.360000      0.0000000E+00
   3.370000      0.0000000E+00
   3.380000      0.0000000E+00
   3.390000      0.0000000E+00
   3.400000      0.0000000E+00
   3.410000      0.0000000E+00
   3.420000      0.0000000E+00
   3.430000      0.0000000E+00
   3.440000      0.0000000E+00
   3.450000      0.0000000E+00
   3.460000      0.0000000E+00
   3.470000      0.0000000E+00
   3.480000      0.0000000E+00
   3.490000      0.0000000E+00
   3.500000      0.0000000E+00
   3.510000      0.0000000E+00
   3.520000      0.0000000E+00
   3.530000      0.0000000E+00
   3.540000      0.0000000E+00
   3.550000      0.0000000E+00
   3.560000      0.0000000E+00
   3.570000      0.0000000E+00
   3.580000      0.0000000E+00
   3.590000      0.0000000E+00
   3.600000      0.0000000E+00
   3.610000      0.0000000E+00
   3.620000      0.0000000E+00
   3.630000      0.0000000E+00
   3.640000      0.0000000E+00
   3.650000      0.0000000E+00
   3.660000      0.0000000E+00
   3.670000      0.0000000E+00
   3.680000      0.0000000E+00
   3.690000      0.0000000E+00
   3.700000      0.0000000E+00
   3.710000      1.3935669E-38
   3.720000      1.6895813E-38
   3.730000      1.9859803E-38
   3.740000      2.2756616E-38
   3.750000      2.5521501E-38
   3.760000      2.8079516E-38
   3.770000      3.0343201E-38
   3.780000      3.1390481E-38
   3.790000      3.1390481E-38
   3.800000      3.1390481E-38
   3.810000      3.1390481E-38
   3.820000      3.0088535E-38
   3.830000      2.7351140E-38
   3.840000      2.4423646E-38
   3.850000      2.1462524E-38
   3.860000      1.7373502E-38
   3.870000      1.1968360E-38
   3.880000      0.0000000E+00
   3.890000      0.0000000E+00
   3.900000      0.0000000E+00
   3.910000      0.0000000E+00
   3.920000     -1.4155275E-38
   3.930000     -1.8993499E-38
   3.940000     -2.2024541E-38
   3.950000     -2.4096078E-38
   3.960000     -2.5131391E-38
   3.970000     -2.5063224E-38
   3.980000     -2.3867417E-38
   3.990000     -2.1573232E-38
   4.000000     -1.8257123E-38
   4.010000     -1.4070919E-38
   4.020000      0.0000000E+00
   4.030000      0.0000000E+00
   4.040000      0.0000000E+00
   4.050000      0.0000000E+00
   4.060000      1.2309919E-38
   4.070000      1.5656023E-38
   4.080000      1.6704368E-38
   4.090000      1.6461567E-38
   4.100000      1.4834822E-38
   4.110000      0.0000000E+00
   4.120000      0.0000000E+00
   4.130000      0.0000000E+00
   4.140000      0.0000000E+00
   4.150000     -1.6643837E-38
   4.160000     -2.5422228E-38
   4.170000     -3.4518911E-38
   4.180000     -4.4474461E-38
   4.190000     -5.5421119E-38
   4.200000     -6.6603088E-38
   4.210000     -7.5800309E-38
   4.220000     -8.3762324E-38
   4.230000     -9.1752253E-38
   4.240000     -9.9171832E-38
   4.250000     -1.0554675E-37
   4.260000     -1.1071882E-37
   4.270000     -1.1454478E-37
   4.280000     -1.1688950E-37
   4.290000     -1.2048708E-37
   4.300000     -2.2544901E-37
   4.310000     -4.3624148E-37
   4.320000     -6.6328761E-37
   4.330000     -9.0997991E-37
   4.340000     -1.3311263E-36
   4.350000     -1.9382823E-36
   4.360000     -2.5869371E-36
   4.370000     -3.2767264E-36
   4.380000     -4.0109318E-36
   4.390000     -4.0764030E-36
   4.400000     -3.2053828E-36
   4.410000     -1.9563852E-36
   4.420000     -5.6134321E-37
   4.430000      7.8091121E-37
   4.440000      2.1194364E-36
   4.450000      2.8141709E-36
   4.460000      2.7497431E-36
   4.470000      2.6552053E-36
   4.480000      2.6064639E-36
   4.490000      2.6040116E-36
   4.500000      2.7441106E-36
   4.510000      2.3523284E-36
   4.520000      1.2161580E-36
   4.530000     -5.0352673E-38
   4.540000     -1.1121323E-36
   4.550000     -1.8325836E-36
   4.560000     -1.6989023E-36
   4.570000     -7.6142281E-37
   4.580000      2.8473156E-37
   4.590000      1.4706761E-36
   4.600000      2.7123404E-36
   4.610000      3.7181563E-36
   4.620000      3.9931774E-36
   4.630000      3.6020131E-36
   4.640000      3.0814203E-36
   4.650000      2.8104302E-36
   4.660000      2.8748713E-36
   4.670000      3.2256257E-36
   4.680000      3.6733219E-36
   4.690000      4.2410095E-36
   4.700000      5.6919063E-36
   4.710000      7.7223529E-36
   4.720000      9.5823474E-36
   4.730000      1.1430868E-35
   4.740000      1.2955035E-35
   4.750000      1.4001920E-35
   4.760000      1.3835336E-35
   4.770000      1.2116032E-35
   4.780000      1.0124810E-35
   4.790000      9.0863374E-36
   4.800000      8.7837646E-36
   4.810000      7.6340244E-36
   4.820000      5.6717620E-36
   4.830000      3.6085008E-36
   4.840000      1.5444038E-36
   4.850000     -4.3438898E-37
   4.860000     -1.7248618E-36
   4.870000     -3.0427263E-36
   4.880000     -5.2141899E-36
   4.890000     -7.7329520E-36
   4.900000     -1.1340581E-35
   4.910000     -1.6046497E-35
   4.920000     -2.1272912E-35
   4.930000     -2.7053787E-35
   4.940000     -3.3046751E-35
   4.950000     -4.0593178E-35
   4.960000     -4.9631340E-35
   4.970000     -5.4269968E-35
   4.980000     -5.3712952E-35
   4.990000     -5.1254286E-35
   5.000000     -4.7560214E-35
   5.010000     -4.3200419E-35
   5.020000     -3.9344338E-35
   5.030000     -3.8776884E-35
   5.040000     -4.0466149E-35
   5.050000     -4.1633209E-35
   5.060000     -4.1424897E-35
   5.070000     -4.0916510E-35
   5.080000     -4.1598616E-35
   5.090000     -4.2510686E-35
   5.100000     -5.1322204E-35
   5.110000     -6.9445675E-35
   5.120000     -8.8535089E-35
   5.130000     -1.0352614E-34
   5.140000     -1.1480608E-34
   5.150000     -1.2549723E-34
   5.160000     -1.3562973E-34
   5.170000     -1.4506200E-34
   5.180000     -1.4131776E-34
   5.190000     -1.2205872E-34
   5.200000     -9.6414207E-35
   5.210000     -6.7248614E-35
   5.220000     -4.0244840E-35
   5.230000     -1.6779396E-35
   5.240000     -9.5469751E-37
   5.250000      5.4569983E-36
   5.260000      8.6743282E-36
   5.270000      1.0648596E-35
   5.280000      1.1309973E-35
   5.290000      8.2535416E-36
   5.300000      3.0073377E-36
   5.310000      4.1269207E-36
   5.320000      1.3968654E-35
   5.330000      2.8243485E-35
   5.340000      4.5020616E-35
   5.350000      6.3631926E-35
   5.360000      8.7334593E-35
   5.370000      1.1928486E-34
   5.380000      1.5594535E-34
   5.390000      1.9342613E-34
   5.400000      2.3252116E-34
   5.410000      2.7464443E-34
   5.420000      3.1271961E-34
   5.430000      3.4700715E-34
   5.440000      3.8292027E-34
   5.450000      4.2216378E-34
   5.460000      4.4853664E-34
   5.470000      4.5428554E-34
   5.480000      4.5437655E-34
   5.490000      4.5187523E-34
   5.500000      4.5032904E-34
   5.510000      4.5567276E-34
   5.520000      4.6972369E-34
   5.530000      4.9379955E-34
   5.540000      5.3419505E-34
   5.550000      5.8996050E-34
   5.560000      6.5231139E-34
   5.570000      7.1625934E-34
   5.580000      7.7867051E-34
   5.590000      8.3520380E-34
   5.600000      8.7615196E-34
   5.610000      8.9944401E-34
   5.620000      9.0946519E-34
   5.630000      9.0488242E-34
   5.640000      8.8206249E-34
   5.650000      8.3998246E-34
   5.660000      7.8681632E-34
   5.670000      7.3444024E-34
   5.680000      6.8514271E-34
   5.690000      6.4090895E-34
   5.700000      6.0606592E-34
   5.710000      5.7711740E-34
   5.720000      5.6179139E-34
   5.730000      5.6172269E-34
   5.740000      5.6163384E-34
   5.750000      5.5614415E-34
   5.760000      5.3985675E-34
   5.770000      5.0392405E-34
   5.780000      4.4244198E-34
   5.790000      3.5145190E-34
   5.800000      2.2625637E-34
   5.810000      6.5926929E-35
   5.820000     -1.2238358E-34
   5.830000     -3.3082309E-34
   5.840000     -5.4997188E-34
   5.850000     -7.6941299E-34
   5.860000     -9.8001405E-34
   5.870000     -1.1873662E-33
   5.880000     -1.3954790E-33
   5.890000     -1.6000120E-33
   5.900000     -1.8065873E-33
   5.910000     -2.0090791E-33
   5.920000     -2.2043043E-33
   5.930000     -2.4238767E-33
   5.940000     -2.6752402E-33
   5.950000     -2.9430071E-33
   5.960000     -3.2353403E-33
   5.970000     -3.5565074E-33
   5.980000     -3.9035144E-33
   5.990000     -4.2735453E-33
   6.000000     -4.6617252E-33
   6.010000     -5.0613756E-33
   6.020000     -5.4635526E-33
   6.030000     -5.8587032E-33
   6.040000     -6.2411455E-33
   6.050000     -6.6090921E-33
   6.060000     -6.9632112E-33
   6.070000     -7.3027322E-33
   6.080000     -7.6276690E-33
   6.090000     -7.9394071E-33
   6.100000     -8.2379151E-33
   6.110000     -8.5267928E-33
   6.120000     -8.8126437E-33
   6.130000     -9.0976540E-33
   6.140000     -9.3765452E-33
   6.150000     -9.6419043E-33
   6.160000     -9.8934564E-33
   6.170000     -1.0129879E-32
   6.180000     -1.0341326E-32
   6.190000     -1.0517544E-32
   6.200000     -1.0643926E-32
   6.210000     -1.0708313E-32
   6.220000     -1.0704123E-32
   6.230000     -1.0626721E-32
   6.240000     -1.0471343E-32
   6.250000     -1.0231691E-32
   6.260000     -9.9054244E-33
   6.270000     -9.4938823E-33
   6.280000     -9.0056106E-33
   6.290000     -8.4455721E-33
   6.300000     -7.8115280E-33
   6.310000     -7.1015970E-33
   6.320000     -6.3127184E-33
   6.330000     -5.4386987E-33
   6.340000     -4.4720551E-33
   6.350000     -3.3998768E-33
   6.360000     -2.2068856E-33
   6.370000     -8.8469560E-34
   6.380000      5.7874404E-34
   6.390000      2.1965899E-33
   6.400000      3.9715282E-33
   6.410000      5.9047109E-33
   6.420000      7.9977814E-33
   6.430000      1.0247930E-32
   6.440000      1.2650517E-32
   6.450000      1.5199847E-32
   6.460000      1.7890048E-32
   6.470000      2.0716019E-32
   6.480000      2.3674646E-32
   6.490000      2.6764114E-32
   6.500000      2.9984204E-32
   6.510000      3.3336876E-32
   6.520000      3.6825214E-32
   6.530000      4.0452384E-32
   6.540000      4.4220414E-32
   6.550000      4.8129282E-32
   6.560000      5.2178531E-32
   6.570000      5.6363303E-32
   6.580000      6.0673117E-32
   6.590000      6.5094263E-32
   6.600000      6.9609137E-32
   6.610000      7.4196863E-32
   6.620000      7.8833488E-32
   6.630000      8.3495546E-32
   6.640000      8.8157339E-32
   6.650000      9.2791649E-32
   6.660000      9.7374655E-32
   6.670000      1.0188444E-31
   6.680000      1.0629910E-31
   6.690000      1.1059601E-31
   6.700000      1.1475163E-31
   6.710000      1.1874338E-31
   6.720000      1.2254685E-31
   6.730000      1.2613247E-31
   6.740000      1.2946918E-31
   6.750000      1.3251811E-31
   6.760000      1.3523575E-31
   6.770000      1.3757860E-31
   6.780000      1.3949597E-31
   6.790000      1.4093399E-31
   6.800000      1.4184040E-31
   6.810000      1.4216115E-31
   6.820000      1.4184157E-31
   6.830000      1.4082813E-31
   6.840000      1.3906664E-31
   6.850000      1.3650616E-31
   6.860000      1.3309824E-31
   6.870000      1.2879420E-31
   6.880000      1.2354557E-31
   6.890000      1.1730298E-31
   6.900000      1.1001559E-31
   6.910000      1.0163057E-31
   6.920000      9.2092724E-32
   6.930000      8.1344568E-32
   6.940000      6.9326672E-32
   6.950000      5.5978687E-32
   6.960000      4.1240365E-32
   6.970000      2.5052606E-32
   6.980000      7.3590898E-33
   6.990000     -1.1892486E-32
   7.000000     -3.2749396E-32
   7.010000     -5.5253019E-32
   7.020000     -7.9438268E-32
   7.030000     -1.0533340E-31
   7.040000     -1.3296014E-31
   7.050000     -1.6233410E-31
   7.060000     -1.9346513E-31