  -2.600000      0.0000000E+00
  -2.590000      0.0000000E+00
  -2.580000      0.0000000E+00
  -2.570000      0.0000000E+00
  -2.560000      0.0000000E+00
  -2.550000      0.0000000E+00
  -2.540000      0.0000000E+00
  -2.530000      0.0000000E+00
  -2.520000      0.0000000E+00
  -2.510000      0.0000000E+00
  -2.500000      0.0000000E+00
  -2.490000      0.0000000E+00
  -2.480000      0.0000000E+00
  -2.470000      0.0000000E+00
  -2.460000      0.0000000E+00
  -2.450000      0.0000000E+00
  -2.440000      0.0000000E+00
  -2.430000      0.0000000E+00
  -2.420000      0.0000000E+00
  -2.410000      0.0000000E+00
  -2.400000      0.0000000E+00
  -2.390000      0.0000000E+00
  -2.380000      0.0000000E+00
  -2.370000      0.0000000E+00
  -2.360000      0.0000000E+00
  -2.350000      0.0000000E+00
  -2.340000      0.0000000E+00
  -2.330000      0.0000000E+00
  -2.320000      0.0000000E+00
  -2.310000      0.0000000E+00
  -2.300000      0.0000000E+00
  -2.290000      0.0000000E+00
  -2.280000      0.0000000E+00
  -2.270000      0.0000000E+00
  -2.260000      0.0000000E+00
  -2.250000      0.0000000E+00
  -2.240000      0.0000000E+00
  -2.230000      0.0000000E+00
  -2.220000      0.0000000E+00
  -2.210000      0.0000000E+00
  -2.200000      0.0000000E+00
  -2.190000      0.0000000E+00
  -2.180000      0.0000000E+00
  -2.170000      0.0000000E+00
  -2.160000      0.0000000E+00
  -2.150000      0.0000000E+00
  -2.140000      0.0000000E+00
  -2.130000      0.0000000E+00
  -2.120000      0.0000000E+00
  -2.110000      0.0000000E+00
  -2.100000      0.0000000E+00
  -2.090000      0.0000000E+00
  -2.080000      0.0000000E+00
  -2.070000      0.0000000E+00
  -2.060000      0.0000000E+00
  -2.050000      0.0000000E+00
  -2.040000      0.0000000E+00
  -2.030000      0.0000000E+00
  -2.020000      0.0000000E+00
  -2.010000      0.0000000E+00
  -2.000000      0.0000000E+00
  -1.990000      0.0000000E+00
  -1.980000      0.0000000E+00
  -1.970000      0.0000000E+00
  -1.960000      0.0000000E+00
  -1.950000      0.0000000E+00
  -1.940000      0.0000000E+00
  -1.930000      0.0000000E+00
  -1.920000      0.0000000E+00
  -1.910000      0.0000000E+00
  -1.900000      0.0000000E+00
  -1.890000      0.0000000E+00
  -1.880000      0.0000000E+00
  -1.870000      0.0000000E+00
  -1.860000      0.0000000E+00
  -1.850000      0.0000000E+00
  -1.840000      0.0000000E+00
  -1.830000      0.0000000E+00
  -1.820000      0.0000000E+00
  -1.810000      0.0000000E+00
  -1.800000      0.0000000E+00
  -1.790000      0.0000000E+00
  -1.780000      0.0000000E+00
  -1.770000      0.0000000E+00
  -1.760000      0.0000000E+00
  -1.750000      0.0000000E+00
  -1.740000      0.0000000E+00
  -1.730000      0.0000000E+00
  -1.720000      0.0000000E+00
  -1.710000      0.0000000E+00
  -1.700000      0.0000000E+00
  -1.690000      0.0000000E+00
  -1.680000      0.0000000E+00
  -1.670000      0.0000000E+00
  -1.660000      0.0000000E+00
  -1.650000      0.0000000E+00
  -1.640000      0.0000000E+00
  -1.630000      0.0000000E+00
  -1.620000      0.0000000E+00
  -1.610000      0.0000000E+00
  -1.600000      0.0000000E+00
  -1.590000      0.0000000E+00
  -1.580000      0.0000000E+00
  -1.570000      0.0000000E+00
  -1.560000      0.0000000E+00
  -1.550000      0.0000000E+00
  -1.540000      0.0000000E+00
  -1.530000      0.0000000E+00
  -1.520000      0.0000000E+00
  -1.510000      0.0000000E+00
  -1.500000      0.0000000E+00
  -1.490000      0.0000000E+00
  -1.480000      0.0000000E+00
  -1.470000      0.0000000E+00
  -1.460000      0.0000000E+00
  -1.450000      0.0000000E+00
  -1.440000      0.0000000E+00
  -1.430000      0.0000000E+00
  -1.420000      0.0000000E+00
  -1.410000      0.0000000E+00
  -1.400000      0.0000000E+00
  -1.390000      0.0000000E+00
  -1.380000      0.0000000E+00
  -1.370000      0.0000000E+00
  -1.360000      0.0000000E+00
  -1.350000      0.0000000E+00
  -1.340000      0.0000000E+00
  -1.330000      0.0000000E+00
  -1.320000      0.0000000E+00
  -1.310000      0.0000000E+00
  -1.300000      0.0000000E+00
  -1.290000      0.0000000E+00
  -1.280000      0.0000000E+00
  -1.270000      0.0000000E+00
  -1.260000      0.0000000E+00
  -1.250000      0.0000000E+00
  -1.240000      0.0000000E+00
  -1.230000      0.0000000E+00
  -1.220000      0.0000000E+00
  -1.210000      0.0000000E+00
  -1.200000      0.0000000E+00
  -1.190000      0.0000000E+00
  -1.180000      0.0000000E+00
  -1.170000      0.0000000E+00
  -1.160000      0.0000000E+00
  -1.150000      0.0000000E+00
  -1.140000      0.0000000E+00
  -1.130000      0.0000000E+00
  -1.120000      0.0000000E+00
  -1.110000      0.0000000E+00
  -1.100000      0.0000000E+00
  -1.090000      0.0000000E+00
  -1.080000      0.0000000E+00
  -1.070000      0.0000000E+00
  -1.060000      0.0000000E+00
  -1.050000      0.0000000E+00
  -1.040000      0.0000000E+00
  -1.030000      0.0000000E+00
  -1.020000      0.0000000E+00
  -1.010000      0.0000000E+00
  -1.000000      0.0000000E+00
 -0.9900000      0.0000000E+00
 -0.9800000      0.0000000E+00
 -0.9700000      0.0000000E+00
 -0.9600000      0.0000000E+00
 -0.9500000      0.0000000E+00
 -0.9400000      0.0000000E+00
 -0.9300000      0.0000000E+00
 -0.9200000      0.0000000E+00
 -0.9100000      0.0000000E+00
 -0.9000000      0.0000000E+00
 -0.8900000      0.0000000E+00
 -0.8800000      0.0000000E+00
 -0.8700000      0.0000000E+00
 -0.8600000      0.0000000E+00
 -0.8500000      0.0000000E+00
 -0.8400000      0.0000000E+00
 -0.8300000      0.0000000E+00
 -0.8200000      0.0000000E+00
 -0.8100000      0.0000000E+00
 -0.8000000      0.0000000E+00
 -0.7900000      0.0000000E+00
 -0.7800000      0.0000000E+00
 -0.7700000      0.0000000E+00
 -0.7600000      0.0000000E+00
 -0.7500000      0.0000000E+00
 -0.7400000      0.0000000E+00
 -0.7300000      0.0000000E+00
 -0.7200000      0.0000000E+00
 -0.7100000      0.0000000E+00
 -0.7000000      0.0000000E+00
 -0.6900000      0.0000000E+00
 -0.6800000      0.0000000E+00
 -0.6700000      0.0000000E+00
 -0.6600000      0.0000000E+00
 -0.6500000      0.0000000E+00
 -0.6400000      0.0000000E+00
 -0.6300000      0.0000000E+00
 -0.6200000      0.0000000E+00
 -0.6100000      0.0000000E+00
 -0.6000000      0.0000000E+00
 -0.5900000      0.0000000E+00
 -0.5800000      0.0000000E+00
 -0.5700000      0.0000000E+00
 -0.5600000      0.0000000E+00
 -0.5500000      0.0000000E+00
 -0.5400000      0.0000000E+00
 -0.5300000      0.0000000E+00
 -0.5200000      0.0000000E+00
 -0.5100000      0.0000000E+00
 -0.5000000      0.0000000E+00
 -0.4900000      0.0000000E+00
 -0.4800000      0.0000000E+00
 -0.4700000      0.0000000E+00
 -0.4600000      0.0000000E+00
 -0.4500000      0.0000000E+00
 -0.4400000      0.0000000E+00
 -0.4300000      0.0000000E+00
 -0.4200000      0.0000000E+00
 -0.4100000      0.0000000E+00
 -0.4000000      0.0000000E+00
 -0.3900000      0.0000000E+00
 -0.3800000      0.0000000E+00
 -0.3700000      0.0000000E+00
 -0.3600000      0.0000000E+00
 -0.3500000      0.0000000E+00
 -0.3400000      0.0000000E+00
 -0.3300000      0.0000000E+00
 -0.3200000      0.0000000E+00
 -0.3100000      0.0000000E+00
 -0.3000000      0.0000000E+00
 -0.2900000      0.0000000E+00
 -0.2800000      0.0000000E+00
 -0.2700000      0.0000000E+00
 -0.2600000      0.0000000E+00
 -0.2500000      0.0000000E+00
 -0.2400000      0.0000000E+00
 -0.2300000      0.0000000E+00
 -0.2200000      0.0000000E+00
 -0.2100000      0.0000000E+00
 -0.2000000      0.0000000E+00
 -0.1900000      0.0000000E+00
 -0.1800000      0.0000000E+00
 -0.1700000      0.0000000E+00
 -0.1600000      0.0000000E+00
 -0.1500000      0.0000000E+00
 -0.1400000      0.0000000E+00
 -0.1300000      0.0000000E+00
 -0.1200000      0.0000000E+00
 -0.1100000      0.0000000E+00
 -0.1000000      0.0000000E+00
 -9.0000004E-02  0.0000000E+00
 -7.9999998E-02  0.0000000E+00
 -7.0000000E-02  0.0000000E+00
 -5.9999999E-02  0.0000000E+00
 -5.0000001E-02  0.0000000E+00
 -3.9999999E-02  0.0000000E+00
 -2.9999999E-02  0.0000000E+00
 -2.0000000E-02  0.0000000E+00
 -9.9999998E-03  0.0000000E+00
 -3.4694470E-17  0.0000000E+00
  9.9999998E-03  0.0000000E+00
  2.0000000E-02  0.0000000E+00
  2.9999999E-02  0.0000000E+00
  3.9999999E-02  0.0000000E+00
  5.0000001E-02  0.0000000E+00
  5.9999999E-02  0.0000000E+00
  7.0000000E-02  0.0000000E+00
  7.9999998E-02  0.0000000E+00
  9.0000004E-02  0.0000000E+00
  0.1000000      0.0000000E+00
  0.1100000      0.0000000E+00
  0.1200000      0.0000000E+00
  0.1300000      0.0000000E+00
  0.1400000      0.0000000E+00
  0.1500000      0.0000000E+00
  0.1600000      0.0000000E+00
  0.1700000      0.0000000E+00
  0.1800000      0.0000000E+00
  0.1900000      0.0000000E+00
  0.2000000      0.0000000E+00
  0.2100000      0.0000000E+00
  0.2200000      0.0000000E+00
  0.2300000      0.0000000E+00
  0.2400000      0.0000000E+00
  0.2500000      0.0000000E+00
  0.2600000      0.0000000E+00
  0.2700000      0.0000000E+00
  0.2800000      0.0000000E+00
  0.2900000      0.0000000E+00
  0.3000000      0.0000000E+00
  0.3100000      0.0000000E+00
  0.3200000      0.0000000E+00
  0.3300000      0.0000000E+00
  0.3400000      0.0000000E+00
  0.3500000      0.0000000E+00
  0.3600000      0.0000000E+00
  0.3700000      0.0000000E+00
  0.3800000      0.0000000E+00
  0.3900000      0.0000000E+00
  0.4000000      0.0000000E+00
  0.4100000      0.0000000E+00
  0.4200000      0.0000000E+00
  0.4300000      0.0000000E+00
  0.4400000      0.0000000E+00
  0.4500000      0.0000000E+00
  0.4600000      0.0000000E+00
  0.4700000      0.0000000E+00
  0.4800000      0.0000000E+00
  0.4900000      0.0000000E+00
  0.5000000      0.0000000E+00
  0.5100000      0.0000000E+00
  0.5200000      0.0000000E+00
  0.5300000      0.0000000E+00
  0.5400000      0.0000000E+00
  0.5500000      0.0000000E+00
  0.5600000      0.0000000E+00
  0.5700000      0.0000000E+00
  0.5800000      0.0000000E+00
  0.5900000      0.0000000E+00
  0.6000000      0.0000000E+00
  0.6100000      0.0000000E+00
  0.6200000      0.0000000E+00
  0.6300000      0.0000000E+00
  0.6400000      0.0000000E+00
  0.6500000      0.0000000E+00
  0.6600000      0.0000000E+00
  0.6700000      0.0000000E+00
  0.6800000      0.0000000E+00
  0.6900000      0.0000000E+00
  0.7000000      0.0000000E+00
  0.7100000      0.0000000E+00
  0.7200000      0.0000000E+00
  0.7300000      0.0000000E+00
  0.7400000      0.0000000E+00
  0.7500000      0.0000000E+00
  0.7600000      0.0000000E+00
  0.7700000      0.0000000E+00
  0.7800000      0.0000000E+00
  0.7900000      0.0000000E+00
  0.8000000     -1.5189097E-38
  0.8100000     -1.9422299E-38
  0.8200000     -2.4019990E-38
  0.8300000     -2.8798474E-38
  0.8400000     -3.4325585E-38
  0.8500000     -4.0938567E-38
  0.8600000     -4.8621436E-38
  0.8700000     -5.5545778E-38
  0.8800000     -6.1035511E-38
  0.8900000     -6.5855154E-38
  0.9000000     -7.1747356E-38
  0.9100000     -7.4783471E-38
  0.9200000     -7.2481653E-38
  0.9300000     -6.8464848E-38
  0.9400000     -6.2422964E-38
  0.9500000     -5.1499372E-38
  0.9600000     -3.5228741E-38
  0.9700000     -1.5049423E-38
  0.9800000      0.0000000E+00
  0.9900000      3.6948830E-38
   1.000000      6.7209604E-38
   1.010000      1.0415936E-37
   1.020000      1.4514133E-37
   1.030000      1.8756840E-37
   1.040000      2.3408298E-37
   1.050000      2.8686932E-37
   1.060000      3.4067727E-37
   1.070000      3.9170310E-37
   1.080000      4.4747007E-37
   1.090000      5.1005071E-37
   1.100000      5.8253959E-37
   1.110000      6.6477478E-37
   1.120000      7.5519324E-37
   1.130000      8.5534451E-37
   1.140000      9.3391615E-37
   1.150000      9.9589910E-37
   1.160000      1.0699100E-36
   1.170000      1.1468259E-36
   1.180000      1.2300162E-36
   1.190000      1.3449889E-36
   1.200000      1.4802965E-36
   1.210000      1.5657019E-36
   1.220000      1.6927947E-36
   1.230000      2.0288359E-36
   1.240000      2.3645617E-36
   1.250000      2.5703403E-36
   1.260000      2.7378881E-36
   1.270000      2.8872483E-36
   1.280000      3.0438595E-36
   1.290000      3.1769762E-36
   1.300000      3.3083088E-36
   1.310000      3.4178768E-36
   1.320000      3.4842710E-36
   1.330000      3.4199223E-36
   1.340000      3.2148429E-36
   1.350000      2.9594532E-36
   1.360000      2.4372651E-36
   1.370000      1.6164780E-36
   1.380000      6.9969958E-37
   1.390000     -3.8206557E-37
   1.400000     -1.6422657E-36
   1.410000     -2.9680120E-36
   1.420000     -4.3741498E-36
   1.430000     -6.1919825E-36
   1.440000     -8.4022885E-36
   1.450000     -1.0741542E-35
   1.460000     -1.3202129E-35
   1.470000     -1.5847059E-35
   1.480000     -1.8802057E-35
   1.490000     -2.1935890E-35
   1.500000     -2.5075140E-35
   1.510000     -2.8215486E-35
   1.520000     -3.1423378E-35
   1.530000     -3.4681839E-35
   1.540000     -3.7852012E-35
   1.550000     -4.1198308E-35
   1.560000     -4.4713575E-35
   1.570000     -4.8261488E-35
   1.580000     -5.1629066E-35
   1.590000     -5.4787616E-35
   1.600000     -5.7869311E-35
   1.610000     -6.0611686E-35
   1.620000     -6.2807725E-35
   1.630000     -6.4037879E-35
   1.640000     -6.4339317E-35
   1.650000     -6.3960433E-35
   1.660000     -6.2718863E-35
   1.670000     -6.0431774E-35
   1.680000     -5.6560254E-35
   1.690000     -5.1015221E-35
   1.700000     -4.3763144E-35
   1.710000     -3.4888555E-35
   1.720000     -2.4110985E-35
   1.730000     -1.0252699E-35
   1.740000      6.2656625E-36
   1.750000      2.3985025E-35
   1.760000      4.3031063E-35
   1.770000      6.4496316E-35
   1.780000      8.9485334E-35
   1.790000      1.1757358E-34
   1.800000      1.4819908E-34
   1.810000      1.8098945E-34
   1.820000      2.1565658E-34
   1.830000      2.5131541E-34
   1.840000      2.8673802E-34
   1.850000      3.1946865E-34
   1.860000      3.4835525E-34
   1.870000      3.7658819E-34
   1.880000      4.0499160E-34
   1.890000      4.3253867E-34
   1.900000      4.5729554E-34
   1.910000      4.7812379E-34
   1.920000      5.0307581E-34
   1.930000      5.3551606E-34
   1.940000      5.7229590E-34
   1.950000      6.1201480E-34
   1.960000      6.5087724E-34
   1.970000      6.8767338E-34
   1.980000      7.2414525E-34
   1.990000      7.5967539E-34
   2.000000      7.9031360E-34
   2.010000      8.0747728E-34
   2.020000      8.0946130E-34
   2.030000      8.0142615E-34
   2.040000      7.8462733E-34
   2.050000      7.5502011E-34
   2.060000      7.0558810E-34
   2.070000      6.3761931E-34
   2.080000      5.5500291E-34
   2.090000      4.5380056E-34
   2.100000      3.2949699E-34
   2.110000      1.7848385E-34
   2.120000      3.0615583E-36
   2.130000     -1.8860063E-34
   2.140000     -4.0218869E-34
   2.150000     -6.4165507E-34
   2.160000     -9.0272833E-34
   2.170000     -1.1851800E-33
   2.180000     -1.4880992E-33
   2.190000     -1.8106984E-33
   2.200000     -2.1511719E-33
   2.210000     -2.5064091E-33
   2.220000     -2.8749462E-33
   2.230000     -3.2543539E-33
   2.240000     -3.6426667E-33
   2.250000     -4.0348091E-33
   2.260000     -4.4285438E-33
   2.270000     -4.8236286E-33
   2.280000     -5.2158047E-33
   2.290000     -5.5994089E-33
   2.300000     -5.9692015E-33
   2.310000     -6.3218828E-33
   2.320000     -6.6525582E-33
   2.330000     -6.9554537E-33
   2.340000     -7.2251246E-33
   2.350000     -7.4568498E-33
   2.360000     -7.6432017E-33
   2.370000     -7.7789815E-33
   2.380000     -7.8570461E-33
   2.390000     -7.8658432E-33
   2.400000     -7.7968072E-33
   2.410000     -7.6423105E-33
   2.420000     -7.3974043E-33
   2.430000     -7.0550967E-33
   2.440000     -6.6055458E-33
   2.450000     -6.0404427E-33
   2.460000     -5.3521790E-33
   2.470000     -4.5337091E-33
   2.480000     -3.5777052E-33
   2.490000     -2.4776137E-33
   2.500000     -1.2280903E-33
   2.510000      1.7819528E-34
   2.520000      1.7438088E-33
   2.530000      3.4678487E-33
   2.540000      5.3521121E-33
   2.550000      7.3984696E-33
   2.560000      9.6060752E-33
   2.570000      1.1970350E-32
   2.580000      1.4485818E-32
   2.590000      1.7144973E-32
   2.600000      1.9938375E-32
   2.610000      2.2853920E-32
   2.620000      2.5877189E-32
   2.630000      2.8991831E-32
   2.640000      3.2178861E-32
   2.650000      3.5416840E-32
   2.660000      3.8682010E-32
   2.670000      4.1947998E-32
   2.680000      4.5185979E-32
   2.690000      4.8364825E-32
   2.700000      5.1450959E-32
   2.710000      5.4408591E-32
   2.720000      5.7199667E-32
   2.730000      5.9783909E-32
   2.740000      6.2119017E-32
   2.750000      6.4160809E-32
   2.760000      6.5863336E-32
   2.770000      6.7179055E-32
   2.780000      6.8059095E-32
   2.790000      6.8453450E-32
   2.800000      6.8311315E-32
   2.810000      6.7581421E-32
   2.820000      6.6212341E-32
   2.830000      6.4152898E-32
   2.840000      6.1352688E-32
   2.850000      5.7762441E-32
   2.860000      5.3334612E-32
   2.870000      4.8023878E-32
   2.880000      4.1787737E-32
   2.890000      3.4587111E-32
   2.900000      2.6386995E-32
   2.910000      1.7156552E-32
   2.920000      6.8716211E-33
   2.930000     -4.4862411E-33
   2.940000     -1.6929744E-32
   2.950000     -3.0463162E-32
   2.960000     -4.5082706E-32
   2.970000     -6.0775656E-32
   2.980000     -7.7519668E-32
   2.990000     -9.5282028E-32
   3.000000     -1.1401907E-31
   3.010000     -1.3367569E-31
   3.020000     -1.5418460E-31
   3.030000     -1.7546602E-31
   3.040000     -1.9742710E-31
   3.050000     -2.1996165E-31
   3.060000     -2.4294981E-31
   3.070000     -2.6625782E-31
   3.080000     -2.8973789E-31
   3.090000     -3.1322822E-31
   3.100000     -3.3655290E-31
   3.110000     -3.5952213E-31
   3.120000     -3.8193243E-31
   3.130000     -4.0356696E-31
   3.140000     -4.2419580E-31
   3.150000     -4.4357684E-31
   3.160000     -4.6145615E-31
   3.170000     -4.7756880E-31
   3.180000     -4.9163998E-31
   3.190000     -5.0338608E-31
   3.200000     -5.1251577E-31
   3.210000     -5.1873160E-31
   3.220000     -5.2173141E-31
   3.230000     -5.2121043E-31
   3.240000     -5.1686280E-31
   3.250000     -5.0838400E-31
   3.260000     -4.9547303E-31
   3.270000     -4.7783493E-31
   3.280000     -4.5518329E-31
   3.290000     -4.2724315E-31
   3.300000     -3.9375386E-31
   3.310000     -3.5447204E-31
   3.320000     -3.0917500E-31
   3.330000     -2.5766385E-31
   3.340000     -1.9976678E-31
   3.350000     -1.3534269E-31
   3.360000     -6.4284454E-32
   3.370000      1.3477497E-32
   3.380000      9.7971635E-32
   3.390000      1.8918196E-31
   3.400000      2.8704453E-31
   3.410000      3.9144406E-31
   3.420000      5.0221082E-31
   3.430000      6.1911726E-31
   3.440000      7.4187527E-31
   3.450000      8.7013317E-31
   3.460000      1.0034730E-30
   3.470000      1.1414085E-30
   3.480000      1.2833826E-30
   3.490000      1.4287655E-30
   3.500000      1.5768532E-30
   3.510000      1.7268659E-30
   3.520000      1.8779476E-30
   3.530000      2.0291651E-30
   3.540000      2.1795080E-30
   3.550000      2.3278888E-30
   3.560000      2.4731440E-30
   3.570000      2.6140356E-30
   3.580000      2.7492518E-30
   3.590000      2.8774110E-30
   3.600000      2.9970641E-30
   3.610000      3.1066984E-30
   3.620000      3.2047425E-30
   3.630000      3.2895719E-30
   3.640000      3.3595140E-30
   3.650000      3.4128558E-30
   3.660000      3.4478536E-30
   3.670000      3.4627370E-30
   3.680000      3.4557243E-30
   3.690000      3.4250275E-30
   3.700000      3.3688675E-30
   3.710000      3.2854841E-30
   3.720000      3.1731498E-30
   3.730000      3.0301822E-30
   3.740000      2.8549598E-30
   3.750000      2.6459362E-30
   3.760000      2.4016557E-30
   3.770000      2.1207699E-30
   3.780000      1.8020535E-30
   3.790000      1.4444231E-30
   3.800000      1.0469531E-30
   3.810000      6.0889399E-31
   3.820000      1.2969094E-31
   3.830000     -3.9099787E-31
   3.840000     -9.5328266E-31
   3.850000     -1.5570241E-30
   3.860000     -2.2018140E-30
   3.870000     -2.8869577E-30
   3.880000     -3.6114553E-30
   3.890000     -4.3739840E-30
   3.900000     -5.1728801E-30
   3.910000     -6.0061216E-30
   3.920000     -6.8713125E-30
   3.930000     -7.7656655E-30
   3.940000     -8.6859899E-30
   3.950000     -9.6286740E-30
   3.960000     -1.0589677E-29
   3.970000     -1.1564511E-29
   3.980000     -1.2548240E-29
   3.990000     -1.3535464E-29
   4.000000     -1.4520319E-29
   4.010000     -1.5496469E-29
   4.020000     -1.6457109E-29
   4.030000     -1.7394962E-29
   4.040000     -1.8302288E-29
   4.050000     -1.9170887E-29
   4.060000     -1.9992117E-29
   4.070000     -2.0756898E-29
   4.080000     -2.1455738E-29
   4.090000     -2.2078750E-29
   4.100000     -2.2615682E-29
   4.110000     -2.3055939E-29
   4.120000     -2.3388627E-29
   4.130000     -2.3602580E-29
   4.140000     -2.3686411E-29
   4.150000     -2.3628551E-29
   4.160000     -2.3417301E-29
   4.170000     -2.3040890E-29
   4.180000     -2.2487531E-29
   4.190000     -2.1745479E-29
   4.200000     -2.0803110E-29
   4.210000     -1.9648981E-29
   4.220000     -1.8271922E-29
   4.230000     -1.6661089E-29
   4.240000     -1.4806081E-29
   4.250000     -1.2697000E-29
   4.260000     -1.0324557E-29
   4.270000     -7.6801730E-30
   4.280000     -4.7560697E-30
   4.290000     -1.5453801E-30
   4.300000      1.9577495E-30
   4.310000      5.7580423E-30
   4.320000      9.8589738E-30
   4.330000      1.4262656E-29
   4.340000      1.8969730E-29
   4.350000      2.3979220E-29
   4.360000      2.9288426E-29
   4.370000      3.4892798E-29
   4.380000      4.0785807E-29
   4.390000      4.6958803E-29
   4.400000      5.3400922E-29
   4.410000      6.0098945E-29
   4.420000      6.7037168E-29
   4.430000      7.4197300E-29
   4.440000      8.1558348E-29
   4.450000      8.9096510E-29
   4.460000      9.6785057E-29
   4.470000      1.0459426E-28
   4.480000      1.1249127E-28
   4.490000      1.2044009E-28
   4.500000      1.2840145E-28
   4.510000      1.3633281E-28
   4.520000      1.4418824E-28
   4.530000      1.5191844E-28
   4.540000      1.5947069E-28
   4.550000      1.6678888E-28
   4.560000      1.7381346E-28
   4.570000      1.8048151E-28
   4.580000      1.8672678E-28
   4.590000      1.9247969E-28
   4.600000      1.9766748E-28
   4.610000      2.0221429E-28
   4.620000      2.0604121E-28
   4.630000      2.0906658E-28
   4.640000      2.1120595E-28
   4.650000      2.1237242E-28
   4.660000      2.1247678E-28
   4.670000      2.1142782E-28
   4.680000      2.0913252E-28
   4.690000      2.0549639E-28
   4.700000      2.0042383E-28
   4.710000      1.9381845E-28
   4.720000      1.8558346E-28
   4.730000      1.7562216E-28
   4.740000      1.6383827E-28
   4.750000      1.5013662E-28
   4.760000      1.3442357E-28
   4.770000      1.1660756E-28
   4.780000      9.6599723E-29
   4.790000      7.4314589E-29
   4.800000      4.9670687E-29
   4.810000      2.2591259E-29
   4.820000     -6.9949648E-30
   4.830000     -3.9153003E-29
   4.840000     -7.3940868E-29
   4.850000     -1.1140872E-28
   4.860000     -1.5159795E-28
   4.870000     -1.9454036E-28
   4.880000     -2.4025723E-28
   4.890000     -2.8875841E-28
   4.900000     -3.4004125E-28
   4.910000     -3.9408983E-28
   4.920000     -4.5087383E-28
   4.930000     -5.1034755E-28
   4.940000     -5.7244902E-28
   4.950000     -6.3709878E-28
   4.960000     -7.0419895E-28
   4.970000     -7.7363229E-28
   4.980000     -8.4526090E-28
   4.990000     -9.1892570E-28
   5.000000     -9.9444497E-28
   5.010000     -1.0716135E-27
   5.020000     -1.1502019E-27
   5.030000     -1.2299549E-27
   5.040000     -1.3105916E-27
   5.050000     -1.3918035E-27
   5.060000     -1.4732547E-27
   5.070000     -1.5545799E-27
   5.080000     -1.6353853E-27
   5.090000     -1.7152467E-27
   5.100000     -1.7937091E-27
   5.110000     -1.8702871E-27
   5.120000     -1.9444641E-27
   5.130000     -2.0156916E-27
   5.140000     -2.0833899E-27
   5.150000     -2.1469477E-27
   5.160000     -2.2057223E-27
   5.170000     -2.2590396E-27
   5.180000     -2.3061956E-27
   5.190000     -2.3464562E-27
   5.200000     -2.3790577E-27
   5.210000     -2.4032091E-27
   5.220000     -2.4180923E-27
   5.230000     -2.4228640E-27
   5.240000     -2.4166563E-27
   5.250000     -2.3985805E-27
   5.260000     -2.3677277E-27
   5.270000     -2.3231713E-27
   5.280000     -2.2639707E-27
   5.290000     -2.1891730E-27
   5.300000     -2.0978161E-27
   5.310000     -1.9889331E-27
   5.320000     -1.8615555E-27
   5.330000     -1.7147171E-27
   5.340000     -1.5474582E-27
   5.350000     -1.3588315E-27
   5.360000     -1.1479049E-27
   5.370000     -9.1376911E-28
   5.380000     -6.5554173E-28
   5.390000     -3.7237348E-28
   5.400000     -6.3454830E-29
   5.410000      2.7197754E-28
   5.420000      6.3463378E-28
   5.430000      1.0251637E-27
   5.440000      1.4441487E-27
   5.450000      1.8920942E-27
   5.460000      2.3694217E-27
   5.470000      2.8764600E-27
   5.480000      3.4134362E-27
   5.490000      3.9804666E-27
   5.500000      4.5775468E-27
   5.510000      5.2045429E-27
   5.520000      5.8611826E-27
   5.530000      6.5470432E-27
   5.540000      7.2615424E-27
   5.550000      8.0039299E-27
   5.560000      8.7732750E-27
   5.570000      9.5684537E-27
   5.580000      1.0388146E-26
   5.590000      1.1230816E-26
   5.600000      1.2094711E-26
   5.610000      1.2977843E-26
   5.620000      1.3877988E-26
   5.630000      1.4792663E-26
   5.640000      1.5719131E-26
   5.650000      1.6654382E-26
   5.660000      1.7595131E-26
   5.670000      1.8537800E-26
   5.680000      1.9478523E-26
   5.690000      2.0413127E-26
   5.700000      2.1337136E-26
   5.710000      2.2245756E-26
   5.720000      2.3133878E-26
   5.730000      2.3996067E-26
   5.740000      2.4826567E-26
   5.750000      2.5619290E-26
   5.760000      2.6367824E-26
   5.770000      2.7065432E-26
   5.780000      2.7705051E-26
   5.790000      2.8279292E-26
   5.800000      2.8780456E-26
   5.810000      2.9200540E-26
   5.820000      2.9531233E-26
   5.830000      2.9763947E-26
   5.840000      2.9889813E-26
   5.850000      2.9899696E-26
   5.860000      2.9784229E-26
   5.870000      2.9533818E-26
   5.880000      2.9138667E-26
   5.890000      2.8588800E-26
   5.900000      2.7874107E-26
   5.910000      2.6984346E-26
   5.920000      2.5909200E-26
   5.930000      2.4638286E-26
   5.940000      2.3161224E-26
   5.950000      2.1467660E-26
   5.960000      1.9547317E-26
   5.970000      1.7390038E-26
   5.980000      1.4985847E-26
   5.990000      1.2324989E-26
   6.000000      9.3979942E-27
   6.010000      6.1957367E-27
   6.020000      2.7095086E-27
   6.030000     -1.0689217E-27
   6.040000     -5.1472458E-27
   6.050000     -9.5325320E-27
   6.060000     -1.4231151E-26
   6.070000     -1.9248707E-26
   6.080000     -2.4589931E-26
   6.090000     -3.0258618E-26
   6.100000     -3.6257536E-26
   6.110000     -4.2588329E-26
   6.120000     -4.9251427E-26
   6.130000     -5.6245961E-26
   6.140000     -6.3569653E-26
   6.150000     -7.1218708E-26
   6.160000     -7.9187762E-26
   6.170000     -8.7469717E-26
   6.180000     -9.6055691E-26
   6.190000     -1.0493489E-25
   6.200000     -1.1409453E-25
   6.210000     -1.2351969E-25
   6.220000     -1.3319330E-25
   6.230000     -1.4309590E-25
   6.240000     -1.5320572E-25
   6.250000     -1.6349844E-25
   6.260000     -1.7394716E-25
   6.270000     -1.8452234E-25
   6.280000     -1.9519165E-25
   6.290000     -2.0591992E-25
   6.300000     -2.1666910E-25
   6.310000     -2.2739818E-25
   6.320000     -2.3806304E-25
   6.330000     -2.4861654E-25
   6.340000     -2.5900840E-25
   6.350000     -2.6918515E-25
   6.360000     -2.7909014E-25
   6.370000     -2.8866351E-25
   6.380000     -2.9784222E-25
   6.390000     -3.0656000E-25
   6.400000     -3.1474739E-25
   6.410000     -3.2233184E-25
   6.420000     -3.2923768E-25
   6.430000     -3.3538621E-25
   6.440000     -3.4069581E-25
   6.450000     -3.4508200E-25
   6.460000     -3.4845766E-25
   6.470000     -3.5073303E-25
   6.480000     -3.5181601E-25
   6.490000     -3.5161217E-25
   6.500000     -3.5002513E-25
   6.510000     -3.4695663E-25
   6.520000     -3.4230704E-25
   6.530000     -3.3597527E-25
   6.540000     -3.2785934E-25
   6.550000     -3.1785661E-25
   6.560000     -3.0586410E-25
   6.570000     -2.9177894E-25
   6.580000     -2.7549875E-25
   6.590000     -2.5692204E-25
   6.600000     -2.3594867E-25
   6.610000     -2.1248035E-25
   6.620000     -1.8642118E-25
   6.630000     -1.5767816E-25
   6.640000     -1.2616164E-25
   6.650000     -9.1786167E-26
   6.660000     -5.4470889E-26
   6.670000     -1.4140253E-26
   6.680000      2.9275281E-26
   6.690000      7.5838622E-26
   6.700000      1.2560523E-25
   6.710000      1.7862245E-25
   6.720000      2.3492874E-25
   6.730000      2.9455285E-25
   6.740000      3.5751307E-25
   6.750000      4.2381646E-25
   6.760000      4.9345789E-25
   6.770000      5.6641939E-25
   6.780000      6.4266901E-25
   6.790000      7.2216015E-25
   6.800000      8.0483085E-25
   6.810000      8.9060276E-25
   6.820000      9.7938018E-25
   6.830000      1.0710493E-24
   6.840000      1.1654774E-24
   6.850000      1.2625120E-24
   6.860000      1.3619802E-24
   6.870000      1.4636872E-24
   6.880000      1.5674168E-24
   6.890000      1.6729292E-24
   6.900000      1.7799611E-24
   6.910000      1.8882254E-24
   6.920000      1.9974096E-24
   6.930000      2.1071761E-24
   6.940000      2.2171608E-24
   6.950000      2.3269740E-24
   6.960000      2.4361983E-24
   6.970000      2.5443898E-24
   6.980000      2.6510769E-24
   6.990000      2.7557605E-24
   7.000000      2.8579143E-24
   7.010000      2.9569840E-24
   7.020000      3.0523884E-24
   7.030000      3.1435188E-24
   7.040000      3.2297401E-24
   7.050000      3.3103905E-24
   7.060000      3.3847832E-24