  -2.600000      0.0000000E+00
  -2.590000      0.0000000E+00
  -2.580000      0.0000000E+00
  -2.570000      0.0000000E+00
  -2.560000      0.0000000E+00
  -2.550000      0.0000000E+00
  -2.540000      0.0000000E+00
  -2.530000      0.0000000E+00
  -2.520000      0.0000000E+00
  -2.510000      0.0000000E+00
  -2.500000      0.0000000E+00
  -2.490000      0.0000000E+00
  -2.480000      0.0000000E+00
  -2.470000      0.0000000E+00
  -2.460000      0.0000000E+00
  -2.450000      0.0000000E+00
  -2.440000      0.0000000E+00
  -2.430000      0.0000000E+00
  -2.420000      0.0000000E+00
  -2.410000      0.0000000E+00
  -2.400000      0.0000000E+00
  -2.390000      0.0000000E+00
  -2.380000      0.0000000E+00
  -2.370000      0.0000000E+00
  -2.360000      0.0000000E+00
  -2.350000      0.0000000E+00
  -2.340000      0.0000000E+00
  -2.330000      0.0000000E+00
  -2.320000      0.0000000E+00
  -2.310000      0.0000000E+00
  -2.300000      0.0000000E+00
  -2.290000      0.0000000E+00
  -2.280000      0.0000000E+00
  -2.270000      0.0000000E+00
  -2.260000      0.0000000E+00
  -2.250000      0.0000000E+00
  -2.240000      0.0000000E+00
  -2.230000      0.0000000E+00
  -2.220000      0.0000000E+00
  -2.210000      0.0000000E+00
  -2.200000      0.0000000E+00
  -2.190000      0.0000000E+00
  -2.180000      0.0000000E+00
  -2.170000      0.0000000E+00
  -2.160000      0.0000000E+00
  -2.150000      0.0000000E+00
  -2.140000      0.0000000E+00
  -2.130000      0.0000000E+00
  -2.120000      0.0000000E+00
  -2.110000      0.0000000E+00
  -2.100000      0.0000000E+00
  -2.090000      0.0000000E+00
  -2.080000      0.0000000E+00
  -2.070000      0.0000000E+00
  -2.060000      0.0000000E+00
  -2.050000      0.0000000E+00
  -2.040000      0.0000000E+00
  -2.030000      0.0000000E+00
  -2.020000      0.0000000E+00
  -2.010000      0.0000000E+00
  -2.000000      0.0000000E+00
  -1.990000      0.0000000E+00
  -1.980000      0.0000000E+00
  -1.970000      0.0000000E+00
  -1.960000      0.0000000E+00
  -1.950000      0.0000000E+00
  -1.940000      0.0000000E+00
  -1.930000      0.0000000E+00
  -1.920000      0.0000000E+00
  -1.910000      0.0000000E+00
  -1.900000      0.0000000E+00
  -1.890000      0.0000000E+00
  -1.880000      0.0000000E+00
  -1.870000      0.0000000E+00
  -1.860000      0.0000000E+00
  -1.850000      0.0000000E+00
  -1.840000      0.0000000E+00
  -1.830000      0.0000000E+00
  -1.820000      0.0000000E+00
  -1.810000      0.0000000E+00
  -1.800000      0.0000000E+00
  -1.790000      0.0000000E+00
  -1.780000      0.0000000E+00
  -1.770000      0.0000000E+00
  -1.760000      0.0000000E+00
  -1.750000      0.0000000E+00
  -1.740000      0.0000000E+00
  -1.730000      0.0000000E+00
  -1.720000      0.0000000E+00
  -1.710000      0.0000000E+00
  -1.700000      0.0000000E+00
  -1.690000      0.0000000E+00
  -1.680000      0.0000000E+00
  -1.670000      0.0000000E+00
  -1.660000      0.0000000E+00
  -1.650000      0.0000000E+00
  -1.640000      0.0000000E+00
  -1.630000      0.0000000E+00
  -1.620000      0.0000000E+00
  -1.610000      0.0000000E+00
  -1.600000      0.0000000E+00
  -1.590000      0.0000000E+00
  -1.580000      0.0000000E+00
  -1.570000      0.0000000E+00
  -1.560000      0.0000000E+00
  -1.550000      0.0000000E+00
  -1.540000      0.0000000E+00
  -1.530000      0.0000000E+00
  -1.520000      0.0000000E+00
  -1.510000      0.0000000E+00
  -1.500000      0.0000000E+00
  -1.490000      0.0000000E+00
  -1.480000      0.0000000E+00
  -1.470000      0.0000000E+00
  -1.460000      0.0000000E+00
  -1.450000      0.0000000E+00
  -1.440000      0.0000000E+00
  -1.430000      0.0000000E+00
  -1.420000      0.0000000E+00
  -1.410000      0.0000000E+00
  -1.400000      0.0000000E+00
  -1.390000      0.0000000E+00
  -1.380000      0.0000000E+00
  -1.370000      0.0000000E+00
  -1.360000      0.0000000E+00
  -1.350000      0.0000000E+00
  -1.340000      0.0000000E+00
  -1.330000      0.0000000E+00
  -1.320000      0.0000000E+00
  -1.310000      0.0000000E+00
  -1.300000      0.0000000E+00
  -1.290000      0.0000000E+00
  -1.280000      0.0000000E+00
  -1.270000      0.0000000E+00
  -1.260000      0.0000000E+00
  -1.250000      0.0000000E+00
  -1.240000      0.0000000E+00
  -1.230000      0.0000000E+00
  -1.220000      0.0000000E+00
  -1.210000      0.0000000E+00
  -1.200000      0.0000000E+00
  -1.190000      0.0000000E+00
  -1.180000      0.0000000E+00
  -1.170000      0.0000000E+00
  -1.160000      0.0000000E+00
  -1.150000      0.0000000E+00
  -1.140000      0.0000000E+00
  -1.130000      0.0000000E+00
  -1.120000      0.0000000E+00
  -1.110000      0.0000000E+00
  -1.100000      0.0000000E+00
  -1.090000      0.0000000E+00
  -1.080000      0.0000000E+00
  -1.070000      0.0000000E+00
  -1.060000      0.0000000E+00
  -1.050000      0.0000000E+00
  -1.040000      0.0000000E+00
  -1.030000      0.0000000E+00
  -1.020000      0.0000000E+00
  -1.010000      0.0000000E+00
  -1.000000      0.0000000E+00
 -0.9900000      0.0000000E+00
 -0.9800000      0.0000000E+00
 -0.9700000      0.0000000E+00
 -0.9600000      0.0000000E+00
 -0.9500000      0.0000000E+00
 -0.9400000      0.0000000E+00
 -0.9300000      0.0000000E+00
 -0.9200000      0.0000000E+00
 -0.9100000      0.0000000E+00
 -0.9000000      0.0000000E+00
 -0.8900000      0.0000000E+00
 -0.8800000      0.0000000E+00
 -0.8700000      0.0000000E+00
 -0.8600000      0.0000000E+00
 -0.8500000      0.0000000E+00
 -0.8400000      0.0000000E+00
 -0.8300000      0.0000000E+00
 -0.8200000      0.0000000E+00
 -0.8100000      0.0000000E+00
 -0.8000000      0.0000000E+00
 -0.7900000      0.0000000E+00
 -0.7800000      0.0000000E+00
 -0.7700000      0.0000000E+00
 -0.7600000      0.0000000E+00
 -0.7500000      0.0000000E+00
 -0.7400000      0.0000000E+00
 -0.7300000      0.0000000E+00
 -0.7200000      0.0000000E+00
 -0.7100000      0.0000000E+00
 -0.7000000      0.0000000E+00
 -0.6900000      0.0000000E+00
 -0.6800000      0.0000000E+00
 -0.6700000      0.0000000E+00
 -0.6600000      0.0000000E+00
 -0.6500000      0.0000000E+00
 -0.6400000      0.0000000E+00
 -0.6300000      0.0000000E+00
 -0.6200000      0.0000000E+00
 -0.6100000      0.0000000E+00
 -0.6000000      0.0000000E+00
 -0.5900000      0.0000000E+00
 -0.5800000      0.0000000E+00
 -0.5700000      0.0000000E+00
 -0.5600000      0.0000000E+00
 -0.5500000      0.0000000E+00
 -0.5400000      0.0000000E+00
 -0.5300000      0.0000000E+00
 -0.5200000      0.0000000E+00
 -0.5100000      0.0000000E+00
 -0.5000000      0.0000000E+00
 -0.4900000      0.0000000E+00
 -0.4800000      0.0000000E+00
 -0.4700000      0.0000000E+00
 -0.4600000      0.0000000E+00
 -0.4500000      0.0000000E+00
 -0.4400000      0.0000000E+00
 -0.4300000      0.0000000E+00
 -0.4200000      0.0000000E+00
 -0.4100000      0.0000000E+00
 -0.4000000      0.0000000E+00
 -0.3900000      0.0000000E+00
 -0.3800000      0.0000000E+00
 -0.3700000      0.0000000E+00
 -0.3600000      0.0000000E+00
 -0.3500000      0.0000000E+00
 -0.3400000      0.0000000E+00
 -0.3300000      0.0000000E+00
 -0.3200000      0.0000000E+00
 -0.3100000      0.0000000E+00
 -0.3000000      0.0000000E+00
 -0.2900000      0.0000000E+00
 -0.2800000      0.0000000E+00
 -0.2700000      0.0000000E+00
 -0.2600000      0.0000000E+00
 -0.2500000      0.0000000E+00
 -0.2400000      0.0000000E+00
 -0.2300000      0.0000000E+00
 -0.2200000      0.0000000E+00
 -0.2100000      0.0000000E+00
 -0.2000000      0.0000000E+00
 -0.1900000      0.0000000E+00
 -0.1800000      0.0000000E+00
 -0.1700000      0.0000000E+00
 -0.1600000      0.0000000E+00
 -0.1500000      0.0000000E+00
 -0.1400000      0.0000000E+00
 -0.1300000      0.0000000E+00
 -0.1200000      0.0000000E+00
 -0.1100000      0.0000000E+00
 -0.1000000      0.0000000E+00
 -9.0000004E-02  0.0000000E+00
 -7.9999998E-02  0.0000000E+00
 -7.0000000E-02  0.0000000E+00
 -5.9999999E-02  0.0000000E+00
 -5.0000001E-02  0.0000000E+00
 -3.9999999E-02  0.0000000E+00
 -2.9999999E-02  0.0000000E+00
 -2.0000000E-02  0.0000000E+00
 -9.9999998E-03  0.0000000E+00
 -3.4694470E-17  0.0000000E+00
  9.9999998E-03  0.0000000E+00
  2.0000000E-02  0.0000000E+00
  2.9999999E-02  0.0000000E+00
  3.9999999E-02  0.0000000E+00
  5.0000001E-02  0.0000000E+00
  5.9999999E-02  0.0000000E+00
  7.0000000E-02  0.0000000E+00
  7.9999998E-02  0.0000000E+00
  9.0000004E-02  0.0000000E+00
  0.1000000      0.0000000E+00
  0.1100000      0.0000000E+00
  0.1200000      0.0000000E+00
  0.1300000      0.0000000E+00
  0.1400000      0.0000000E+00
  0.1500000      0.0000000E+00
  0.1600000      0.0000000E+00
  0.1700000      0.0000000E+00
  0.1800000      0.0000000E+00
  0.1900000      0.0000000E+00
  0.2000000      0.0000000E+00
  0.2100000      0.0000000E+00
  0.2200000      0.0000000E+00
  0.2300000      0.0000000E+00
  0.2400000      0.0000000E+00
  0.2500000      0.0000000E+00
  0.2600000      0.0000000E+00
  0.2700000      0.0000000E+00
  0.2800000      0.0000000E+00
  0.2900000      0.0000000E+00
  0.3000000      0.0000000E+00
  0.3100000      0.0000000E+00
  0.3200000      0.0000000E+00
  0.3300000      0.0000000E+00
  0.3400000      0.0000000E+00
  0.3500000      0.0000000E+00
  0.3600000      0.0000000E+00
  0.3700000      0.0000000E+00
  0.3800000      0.0000000E+00
  0.3900000      0.0000000E+00
  0.4000000      0.0000000E+00
  0.4100000      0.0000000E+00
  0.4200000      0.0000000E+00
  0.4300000      0.0000000E+00
  0.4400000      0.0000000E+00
  0.4500000      0.0000000E+00
  0.4600000      0.0000000E+00
  0.4700000      0.0000000E+00
  0.4800000      0.0000000E+00
  0.4900000      0.0000000E+00
  0.5000000      0.0000000E+00
  0.5100000      0.0000000E+00
  0.5200000      0.0000000E+00
  0.5300000      0.0000000E+00
  0.5400000      0.0000000E+00
  0.5500000      0.0000000E+00
  0.5600000      0.0000000E+00
  0.5700000      0.0000000E+00
  0.5800000      0.0000000E+00
  0.5900000      0.0000000E+00
  0.6000000      0.0000000E+00
  0.6100000      0.0000000E+00
  0.6200000      0.0000000E+00
  0.6300000      0.0000000E+00
  0.6400000      0.0000000E+00
  0.6500000      0.0000000E+00
  0.6600000      0.0000000E+00
  0.6700000      0.0000000E+00
  0.6800000      0.0000000E+00
  0.6900000      0.0000000E+00
  0.7000000      0.0000000E+00
  0.7100000      0.0000000E+00
  0.7200000      0.0000000E+00
  0.7300000      0.0000000E+00
  0.7400000      0.0000000E+00
  0.7500000      0.0000000E+00
  0.7600000      0.0000000E+00
  0.7700000      0.0000000E+00
  0.7800000      0.0000000E+00
  0.7900000      0.0000000E+00
  0.8000000      0.0000000E+00
  0.8100000      0.0000000E+00
  0.8200000      0.0000000E+00
  0.8300000      0.0000000E+00
  0.8400000      0.0000000E+00
  0.8500000      0.0000000E+00
  0.8600000      0.0000000E+00
  0.8700000      0.0000000E+00
  0.8800000      0.0000000E+00
  0.8900000      0.0000000E+00
  0.9000000      0.0000000E+00
  0.9100000      0.0000000E+00
  0.9200000      0.0000000E+00
  0.9300000      0.0000000E+00
  0.9400000      0.0000000E+00
  0.9500000      0.0000000E+00
  0.9600000      0.0000000E+00
  0.9700000      0.0000000E+00
  0.9800000      0.0000000E+00
  0.9900000      0.0000000E+00
   1.000000      0.0000000E+00
   1.010000      0.0000000E+00
   1.020000      0.0000000E+00
   1.030000      0.0000000E+00
   1.040000      0.0000000E+00
   1.050000      0.0000000E+00
   1.060000      0.0000000E+00
   1.070000      0.0000000E+00
   1.080000      0.0000000E+00
   1.090000      0.0000000E+00
   1.100000      0.0000000E+00
   1.110000      0.0000000E+00
   1.120000      0.0000000E+00
   1.130000      0.0000000E+00
   1.140000      0.0000000E+00
   1.150000      0.0000000E+00
   1.160000      0.0000000E+00
   1.170000      0.0000000E+00
   1.180000      0.0000000E+00
   1.190000      0.0000000E+00
   1.200000      0.0000000E+00
   1.210000      0.0000000E+00
   1.220000      0.0000000E+00
   1.230000      0.0000000E+00
   1.240000      0.0000000E+00
   1.250000      0.0000000E+00
   1.260000      0.0000000E+00
   1.270000      0.0000000E+00
   1.280000      0.0000000E+00
   1.290000      0.0000000E+00
   1.300000      0.0000000E+00
   1.310000      0.0000000E+00
   1.320000      0.0000000E+00
   1.330000      0.0000000E+00
   1.340000      0.0000000E+00
   1.350000      0.0000000E+00
   1.360000      0.0000000E+00
   1.370000      0.0000000E+00
   1.380000      0.0000000E+00
   1.390000      0.0000000E+00
   1.400000      0.0000000E+00
   1.410000      0.0000000E+00
   1.420000      0.0000000E+00
   1.430000      0.0000000E+00
   1.440000      0.0000000E+00
   1.450000      0.0000000E+00
   1.460000      0.0000000E+00
   1.470000      0.0000000E+00
   1.480000      0.0000000E+00
   1.490000      0.0000000E+00
   1.500000      0.0000000E+00
   1.510000      0.0000000E+00
   1.520000      0.0000000E+00
   1.530000      0.0000000E+00
   1.540000      0.0000000E+00
   1.550000      0.0000000E+00
   1.560000      0.0000000E+00
   1.570000      0.0000000E+00
   1.580000      0.0000000E+00
   1.590000      0.0000000E+00
   1.600000      0.0000000E+00
   1.610000      0.0000000E+00
   1.620000      0.0000000E+00
   1.630000      0.0000000E+00
   1.640000      0.0000000E+00
   1.650000      0.0000000E+00
   1.660000      0.0000000E+00
   1.670000      0.0000000E+00
   1.680000      0.0000000E+00
   1.690000      0.0000000E+00
   1.700000      0.0000000E+00
   1.710000      0.0000000E+00
   1.720000      0.0000000E+00
   1.730000      0.0000000E+00
   1.740000      0.0000000E+00
   1.750000      0.0000000E+00
   1.760000      0.0000000E+00
   1.770000      0.0000000E+00
   1.780000      0.0000000E+00
   1.790000      0.0000000E+00
   1.800000      0.0000000E+00
   1.810000      0.0000000E+00
   1.820000      0.0000000E+00
   1.830000      0.0000000E+00
   1.840000      0.0000000E+00
   1.850000      0.0000000E+00
   1.860000      0.0000000E+00
   1.870000      0.0000000E+00
   1.880000      0.0000000E+00
   1.890000      0.0000000E+00
   1.900000      0.0000000E+00
   1.910000      0.0000000E+00
   1.920000      0.0000000E+00
   1.930000      0.0000000E+00
   1.940000      0.0000000E+00
   1.950000      0.0000000E+00
   1.960000      0.0000000E+00
   1.970000      0.0000000E+00
   1.980000      0.0000000E+00
   1.990000      0.0000000E+00
   2.000000      0.0000000E+00
   2.010000      0.0000000E+00
   2.020000      0.0000000E+00
   2.030000      0.0000000E+00
   2.040000      0.0000000E+00
   2.050000      0.0000000E+00
   2.060000      0.0000000E+00
   2.070000      0.0000000E+00
   2.080000      0.0000000E+00
   2.090000      0.0000000E+00
   2.100000      0.0000000E+00
   2.110000      0.0000000E+00
   2.120000      0.0000000E+00
   2.130000      0.0000000E+00
   2.140000      0.0000000E+00
   2.150000      0.0000000E+00
   2.160000      0.0000000E+00
   2.170000      0.0000000E+00
   2.180000      0.0000000E+00
   2.190000      0.0000000E+00
   2.200000      0.0000000E+00
   2.210000      0.0000000E+00
   2.220000      0.0000000E+00
   2.230000      0.0000000E+00
   2.240000      0.0000000E+00
   2.250000      0.0000000E+00
   2.260000      0.0000000E+00
   2.270000      0.0000000E+00
   2.280000      0.0000000E+00
   2.290000      0.0000000E+00
   2.300000      0.0000000E+00
   2.310000      0.0000000E+00
   2.320000      0.0000000E+00
   2.330000      0.0000000E+00
   2.340000      0.0000000E+00
   2.350000      0.0000000E+00
   2.360000      0.0000000E+00
   2.370000      0.0000000E+00
   2.380000      0.0000000E+00
   2.390000      0.0000000E+00
   2.400000      0.0000000E+00
   2.410000      0.0000000E+00
   2.420000      0.0000000E+00
   2.430000      0.0000000E+00
   2.440000      0.0000000E+00
   2.450000      0.0000000E+00
   2.460000      0.0000000E+00
   2.470000      0.0000000E+00
   2.480000      0.0000000E+00
   2.490000      0.0000000E+00
   2.500000      0.0000000E+00
   2.510000      0.0000000E+00
   2.520000      0.0000000E+00
   2.530000      0.0000000E+00
   2.540000      0.0000000E+00
   2.550000      0.0000000E+00
   2.560000      0.0000000E+00
   2.570000      0.0000000E+00
   2.580000      0.0000000E+00
   2.590000      0.0000000E+00
   2.600000      0.0000000E+00
   2.610000      0.0000000E+00
   2.620000      0.0000000E+00
   2.630000      0.0000000E+00
   2.640000      0.0000000E+00
   2.650000      0.0000000E+00
   2.660000      0.0000000E+00
   2.670000      0.0000000E+00
   2.680000      0.0000000E+00
   2.690000      0.0000000E+00
   2.700000      0.0000000E+00
   2.710000      0.0000000E+00
   2.720000      0.0000000E+00
   2.730000      0.0000000E+00
   2.740000      0.0000000E+00
   2.750000      0.0000000E+00
   2.760000      0.0000000E+00
   2.770000      0.0000000E+00
   2.780000      0.0000000E+00
   2.790000      0.0000000E+00
   2.800000      0.0000000E+00
   2.810000      0.0000000E+00
   2.820000      0.0000000E+00
   2.830000      0.0000000E+00
   2.840000      0.0000000E+00
   2.850000      0.0000000E+00
   2.860000      0.0000000E+00
   2.870000      0.0000000E+00
   2.880000      0.0000000E+00
   2.890000      0.0000000E+00
   2.900000      0.0000000E+00
   2.910000      0.0000000E+00
   2.920000      0.0000000E+00
   2.930000      0.0000000E+00
   2.940000      0.0000000E+00
   2.950000      0.0000000E+00
   2.960000      0.0000000E+00
   2.970000      0.0000000E+00
   2.980000      0.0000000E+00
   2.990000      0.0000000E+00
   3.000000      0.0000000E+00
   3.010000      0.0000000E+00
   3.020000      0.0000000E+00
   3.030000      0.0000000E+00
   3.040000      0.0000000E+00
   3.050000      0.0000000E+00
   3.060000      0.0000000E+00
   3.070000      0.0000000E+00
   3.080000      0.0000000E+00
   3.090000      0.0000000E+00
   3.100000      0.0000000E+00
   3.110000      0.0000000E+00
   3.120000      0.0000000E+00
   3.130000      0.0000000E+00
   3.140000      0.0000000E+00
   3.150000      0.0000000E+00
   3.160000      0.0000000E+00
   3.170000      0.0000000E+00
   3.180000      0.0000000E+00
   3.190000      0.0000000E+00
   3.200000      0.0000000E+00
   3.210000      0.0000000E+00
   3.220000      0.0000000E+00
   3.230000      0.0000000E+00
   3.240000      0.0000000E+00
   3.250000      0.0000000E+00
   3.260000      0.0000000E+00
   3.270000      0.0000000E+00
   3.280000      0.0000000E+00
   3.290000      0.0000000E+00
   3.300000      0.0000000E+00
   3.310000      0.0000000E+00
   3.320000      0.0000000E+00
   3.330000      0.0000000E+00
   3.340000      0.0000000E+00
   3.350000      0.0000000E+00
   3.360000      0.0000000E+00
   3.370000      0.0000000E+00
   3.380000      0.0000000E+00
   3.390000      0.0000000E+00
   3.400000      0.0000000E+00
   3.410000      0.0000000E+00
   3.420000      0.0000000E+00
   3.430000      0.0000000E+00
   3.440000      1.3080423E-38
   3.450000      1.3657911E-38
   3.460000      1.2955802E-38
   3.470000      1.1893256E-38
   3.480000      0.0000000E+00
   3.490000      1.1823833E-38
   3.500000      0.0000000E+00
   3.510000      0.0000000E+00
   3.520000      0.0000000E+00
   3.530000      0.0000000E+00
   3.540000      0.0000000E+00
   3.550000      0.0000000E+00
   3.560000      0.0000000E+00
   3.570000      0.0000000E+00
   3.580000     -1.5354280E-38
   3.590000     -2.3196927E-38
   3.600000     -3.1400680E-38
   3.610000     -3.9195052E-38
   3.620000     -4.5867542E-38
   3.630000     -5.1419117E-38
   3.640000     -5.5942559E-38
   3.650000     -6.0526884E-38
   3.660000     -6.4777785E-38
   3.670000     -6.8129904E-38
   3.680000     -7.1160144E-38
   3.690000     -7.3969423E-38
   3.700000     -7.6544275E-38
   3.710000     -7.9091959E-38
   3.720000     -8.1380296E-38
   3.730000     -8.3872158E-38
   3.740000     -8.7265520E-38
   3.750000     -9.0427303E-38
   3.760000     -9.2916194E-38
   3.770000     -9.5187043E-38
   3.780000     -9.7399077E-38
   3.790000     -9.8792909E-38
   3.800000     -9.7484276E-38
   3.810000     -9.3962353E-38
   3.820000     -8.9157424E-38
   3.830000     -8.2446611E-38
   3.840000     -7.4048467E-38
   3.850000     -6.4365898E-38
   3.860000     -5.3256931E-38
   3.870000     -4.4348964E-38
   3.880000     -3.8218891E-38
   3.890000     -3.0253067E-38
   3.900000     -1.8595622E-38
   3.910000      0.0000000E+00
   3.920000      1.2920452E-38
   3.930000      3.2015306E-38
   3.940000      5.1578753E-38
   3.950000      7.1670710E-38
   3.960000      9.5742126E-38
   3.970000      1.2762957E-37
   3.980000      1.6572614E-37
   3.990000      2.0622566E-37
   4.000000      2.4800541E-37
   4.010000      2.9209856E-37
   4.020000      3.3778941E-37
   4.030000      3.8014160E-37
   4.040000      4.1989929E-37
   4.050000      4.5408850E-37
   4.060000      4.7028980E-37
   4.070000      4.7084615E-37
   4.080000      4.6123477E-37
   4.090000      4.3929505E-37
   4.100000      3.9174404E-37
   4.110000      3.2330007E-37
   4.120000      2.6207147E-37
   4.130000      2.1949338E-37
   4.140000      1.3963960E-37
   4.150000      2.1933680E-38
   4.160000     -9.1785021E-38
   4.170000     -2.1488946E-37
   4.180000     -3.6304237E-37
   4.190000     -5.2933487E-37
   4.200000     -7.0177359E-37
   4.210000     -9.6625587E-37
   4.220000     -1.3200465E-36
   4.230000     -1.6961557E-36
   4.240000     -1.9767417E-36
   4.250000     -2.1024320E-36
   4.260000     -2.1766300E-36
   4.270000     -2.2399494E-36
   4.280000     -2.2414252E-36
   4.290000     -2.1606196E-36
   4.300000     -1.9859033E-36
   4.310000     -1.7104397E-36
   4.320000     -1.4315606E-36
   4.330000     -1.2114955E-36
   4.340000     -1.0297296E-36
   4.350000     -8.1774406E-37
   4.360000     -6.1689293E-37
   4.370000     -5.3825372E-37
   4.380000     -5.7897155E-37
   4.390000     -7.5739092E-37
   4.400000     -9.5788530E-37
   4.410000     -1.0404455E-36
   4.420000     -1.0558251E-36
   4.430000     -9.6802693E-37
   4.440000     -8.9458661E-37
   4.450000     -8.7364542E-37
   4.460000     -7.7559058E-37
   4.470000     -5.7243594E-37
   4.480000     -2.4993781E-37
   4.490000      1.6304604E-37
   4.500000      6.6017449E-37
   4.510000      1.2782125E-36
   4.520000      2.0156898E-36
   4.530000      2.8271676E-36
   4.540000      3.7220069E-36
   4.550000      4.7184421E-36
   4.560000      5.8213244E-36
   4.570000      7.0023949E-36
   4.580000      8.2307248E-36
   4.590000      9.4681550E-36
   4.600000      1.0670071E-35
   4.610000      1.1816218E-35
   4.620000      1.2885370E-35
   4.630000      1.3775782E-35
   4.640000      1.4505778E-35
   4.650000      1.5097667E-35
   4.660000      1.5525441E-35
   4.670000      1.5713063E-35
   4.680000      1.5647070E-35
   4.690000      1.5540048E-35
   4.700000      1.5387076E-35
   4.710000      1.5132929E-35
   4.720000      1.4705670E-35
   4.730000      1.4055134E-35
   4.740000      1.3351739E-35
   4.750000      1.2682472E-35
   4.760000      1.2213167E-35
   4.770000      1.1979604E-35
   4.780000      1.1814281E-35
   4.790000      1.1432034E-35
   4.800000      1.0796295E-35
   4.810000      9.4483379E-36
   4.820000      7.3304499E-36
   4.830000      4.9379110E-36
   4.840000      2.0899983E-36
   4.850000     -1.1931586E-36
   4.860000     -4.8152339E-36
   4.870000     -8.3344838E-36
   4.880000     -1.1406830E-35
   4.890000     -1.4545158E-35
   4.900000     -1.8352843E-35
   4.910000     -2.2755578E-35
   4.920000     -2.7133222E-35
   4.930000     -3.1541231E-35
   4.940000     -3.6358609E-35
   4.950000     -4.1526611E-35
   4.960000     -4.6942538E-35
   4.970000     -5.2460821E-35
   4.980000     -5.7828984E-35
   4.990000     -6.3193583E-35
   5.000000     -6.8726178E-35
   5.010000     -7.4392629E-35
   5.020000     -7.9068996E-35
   5.030000     -8.2714751E-35
   5.040000     -8.6722113E-35
   5.050000     -9.0624071E-35
   5.060000     -9.4363481E-35
   5.070000     -9.8489885E-35
   5.080000     -1.0225241E-34
   5.090000     -1.0610103E-34
   5.100000     -1.1338541E-34
   5.110000     -1.2463501E-34
   5.120000     -1.3629866E-34
   5.130000     -1.4868248E-34
   5.140000     -1.5783109E-34
   5.150000     -1.6176673E-34
   5.160000     -1.6463340E-34
   5.170000     -1.6451425E-34
   5.180000     -1.6013743E-34
   5.190000     -1.5067915E-34
   5.200000     -1.4011808E-34
   5.210000     -1.3013930E-34
   5.220000     -1.1717429E-34
   5.230000     -1.0333208E-34
   5.240000     -9.0088527E-35
   5.250000     -7.6538882E-35
   5.260000     -6.2314534E-35
   5.270000     -4.8705707E-35
   5.280000     -3.4930165E-35
   5.290000     -1.9414462E-35
   5.300000      1.4496829E-36
   5.310000      2.8967386E-35
   5.320000      5.9549017E-35
   5.330000      9.0910420E-35
   5.340000      1.2262763E-34
   5.350000      1.5502835E-34
   5.360000      1.8698257E-34
   5.370000      2.1856249E-34
   5.380000      2.4924914E-34
   5.390000      2.8006970E-34
   5.400000      3.1334813E-34
   5.410000      3.5057044E-34
   5.420000      3.9234314E-34
   5.430000      4.3462297E-34
   5.440000      4.7613605E-34
   5.450000      5.2046950E-34
   5.460000      5.6667915E-34
   5.470000      6.1474782E-34
   5.480000      6.6714746E-34
   5.490000      7.2400860E-34
   5.500000      7.8619707E-34
   5.510000      8.4870609E-34
   5.520000      9.0816150E-34
   5.530000      9.6575273E-34
   5.540000      1.0201415E-33
   5.550000      1.0735551E-33
   5.560000      1.1255027E-33
   5.570000      1.1732215E-33
   5.580000      1.2162283E-33
   5.590000      1.2538216E-33
   5.600000      1.2860671E-33
   5.610000      1.3122016E-33
   5.620000      1.3304651E-33
   5.630000      1.3403765E-33
   5.640000      1.3421081E-33
   5.650000      1.3349463E-33
   5.660000      1.3182000E-33
   5.670000      1.2935874E-33
   5.680000      1.2582006E-33
   5.690000      1.2095792E-33
   5.700000      1.1508354E-33
   5.710000      1.0804631E-33
   5.720000      9.9680709E-34
   5.730000      8.9988041E-34
   5.740000      7.9027190E-34
   5.750000      6.6807582E-34
   5.760000      5.3213821E-34
   5.770000      3.8385701E-34
   5.780000      2.2004882E-34
   5.790000      4.0197938E-35
   5.800000     -1.5321872E-34
   5.810000     -3.6224955E-34
   5.820000     -5.8715993E-34
   5.830000     -8.2863251E-34
   5.840000     -1.0876908E-33
   5.850000     -1.3646188E-33
   5.860000     -1.6600531E-33
   5.870000     -1.9746384E-33
   5.880000     -2.3079089E-33
   5.890000     -2.6602591E-33
   5.900000     -3.0328796E-33
   5.910000     -3.4255720E-33
   5.920000     -3.8375997E-33
   5.930000     -4.2680194E-33
   5.940000     -4.7158240E-33
   5.950000     -5.1797394E-33
   5.960000     -5.6581521E-33
   5.970000     -6.1492876E-33
   5.980000     -6.6509882E-33
   5.990000     -7.1607913E-33
   6.000000     -7.6759024E-33
   6.010000     -8.1938642E-33
   6.020000     -8.7120772E-33
   6.030000     -9.2269952E-33
   6.040000     -9.7351048E-33
   6.050000     -1.0232827E-32
   6.060000     -1.0716257E-32
   6.070000     -1.1181383E-32
   6.080000     -1.1624005E-32
   6.090000     -1.2039912E-32
   6.100000     -1.2424673E-32
   6.110000     -1.2773531E-32
   6.120000     -1.3081943E-32
   6.130000     -1.3344951E-32
   6.140000     -1.3557846E-32
   6.150000     -1.3716162E-32
   6.160000     -1.3814559E-32
   6.170000     -1.3847610E-32
   6.180000     -1.3810135E-32
   6.190000     -1.3695783E-32
   6.200000     -1.3500312E-32
   6.210000     -1.3219258E-32
   6.220000     -1.2845915E-32
   6.230000     -1.2372509E-32
   6.240000     -1.1794473E-32
   6.250000     -1.1107450E-32
   6.260000     -1.0303366E-32
   6.270000     -9.3757429E-33
   6.280000     -8.3180434E-33
   6.290000     -7.1237345E-33
   6.300000     -5.7863478E-33
   6.310000     -4.2991274E-33
   6.320000     -2.6563977E-33
   6.330000     -8.5278028E-34
   6.340000      1.1181907E-33
   6.350000      3.2608937E-33
   6.360000      5.5791772E-33
   6.370000      8.0774991E-33
   6.380000      1.0759028E-32
   6.390000      1.3626220E-32
   6.400000      1.6680691E-32
   6.410000      1.9923103E-32
   6.420000      2.3353147E-32
   6.430000      2.6969443E-32
   6.440000      3.0769482E-32
   6.450000      3.4749535E-32
   6.460000      3.8904608E-32
   6.470000      4.3228370E-32
   6.480000      4.7713169E-32
   6.490000      5.2349724E-32
   6.500000      5.7127268E-32
   6.510000      6.2033652E-32
   6.520000      6.7055105E-32
   6.530000      7.2176270E-32
   6.540000      7.7380119E-32
   6.550000      8.2647932E-32
   6.560000      8.7959386E-32
   6.570000      9.3292433E-32
   6.580000      9.8623282E-32
   6.590000      1.0392634E-31
   6.600000      1.0917417E-31
   6.610000      1.1433748E-31
   6.620000      1.1938510E-31
   6.630000      1.2428376E-31
   6.640000      1.2899823E-31
   6.650000      1.3349117E-31
   6.660000      1.3772312E-31
   6.670000      1.4165254E-31
   6.680000      1.4523564E-31
   6.690000      1.4842656E-31
   6.700000      1.5117731E-31
   6.710000      1.5343785E-31
   6.720000      1.5515607E-31
   6.730000      1.5627789E-31
   6.740000      1.5674753E-31
   6.750000      1.5650747E-31
   6.760000      1.5549861E-31
   6.770000      1.5366050E-31
   6.780000      1.5093142E-31
   6.790000      1.4724903E-31
   6.800000      1.4254944E-31
   6.810000      1.3676825E-31
   6.820000      1.2984166E-31
   6.830000      1.2170551E-31
   6.840000      1.1229597E-31
   6.850000      1.0155003E-31
   6.860000      8.9405767E-32
   6.870000      7.5802747E-32
   6.880000      6.0682427E-32
   6.890000      4.3988591E-32
   6.900000      2.5667854E-32
   6.910000      5.6703996E-33
   6.920000     -1.6050586E-32
   6.930000     -3.9537767E-32
   6.940000     -6.4828384E-32
   6.950000     -9.1954815E-32
   6.960000     -1.2094380E-31
   6.970000     -1.5181582E-31
   6.980000     -1.8458454E-31
   6.990000     -2.1925633E-31
   7.000000     -2.5582965E-31
   7.010000     -2.9429441E-31
   7.020000     -3.3463146E-31
   7.030000     -3.7681179E-31
   7.040000     -4.2079609E-31
   7.050000     -4.6653396E-31
   7.060000     -5.1396323E-31