  -2.600000      0.0000000E+00
  -2.590000      0.0000000E+00
  -2.580000      0.0000000E+00
  -2.570000      0.0000000E+00
  -2.560000      0.0000000E+00
  -2.550000      0.0000000E+00
  -2.540000      0.0000000E+00
  -2.530000      0.0000000E+00
  -2.520000      0.0000000E+00
  -2.510000      0.0000000E+00
  -2.500000      0.0000000E+00
  -2.490000      0.0000000E+00
  -2.480000      0.0000000E+00
  -2.470000      0.0000000E+00
  -2.460000      0.0000000E+00
  -2.450000      0.0000000E+00
  -2.440000      0.0000000E+00
  -2.430000      0.0000000E+00
  -2.420000      0.0000000E+00
  -2.410000      0.0000000E+00
  -2.400000      0.0000000E+00
  -2.390000      0.0000000E+00
  -2.380000      0.0000000E+00
  -2.370000      0.0000000E+00
  -2.360000      0.0000000E+00
  -2.350000      0.0000000E+00
  -2.340000      0.0000000E+00
  -2.330000      0.0000000E+00
  -2.320000      0.0000000E+00
  -2.310000      0.0000000E+00
  -2.300000      0.0000000E+00
  -2.290000      0.0000000E+00
  -2.280000      0.0000000E+00
  -2.270000      0.0000000E+00
  -2.260000      0.0000000E+00
  -2.250000      0.0000000E+00
  -2.240000      0.0000000E+00
  -2.230000      0.0000000E+00
  -2.220000      0.0000000E+00
  -2.210000      0.0000000E+00
  -2.200000      0.0000000E+00
  -2.190000      0.0000000E+00
  -2.180000      0.0000000E+00
  -2.170000      0.0000000E+00
  -2.160000      0.0000000E+00
  -2.150000      0.0000000E+00
  -2.140000      0.0000000E+00
  -2.130000      0.0000000E+00
  -2.120000      0.0000000E+00
  -2.110000      0.0000000E+00
  -2.100000      0.0000000E+00
  -2.090000      0.0000000E+00
  -2.080000      0.0000000E+00
  -2.070000      0.0000000E+00
  -2.060000      0.0000000E+00
  -2.050000      0.0000000E+00
  -2.040000      0.0000000E+00
  -2.030000      0.0000000E+00
  -2.020000      0.0000000E+00
  -2.010000      0.0000000E+00
  -2.000000      0.0000000E+00
  -1.990000      0.0000000E+00
  -1.980000      0.0000000E+00
  -1.970000      0.0000000E+00
  -1.960000      0.0000000E+00
  -1.950000      0.0000000E+00
  -1.940000      0.0000000E+00
  -1.930000      0.0000000E+00
  -1.920000      0.0000000E+00
  -1.910000      0.0000000E+00
  -1.900000      0.0000000E+00
  -1.890000      0.0000000E+00
  -1.880000      0.0000000E+00
  -1.870000      0.0000000E+00
  -1.860000      0.0000000E+00
  -1.850000      0.0000000E+00
  -1.840000      0.0000000E+00
  -1.830000      0.0000000E+00
  -1.820000      0.0000000E+00
  -1.810000      0.0000000E+00
  -1.800000      0.0000000E+00
  -1.790000      0.0000000E+00
  -1.780000      0.0000000E+00
  -1.770000      0.0000000E+00
  -1.760000      0.0000000E+00
  -1.750000      0.0000000E+00
  -1.740000      0.0000000E+00
  -1.730000      0.0000000E+00
  -1.720000      0.0000000E+00
  -1.710000      0.0000000E+00
  -1.700000      0.0000000E+00
  -1.690000      0.0000000E+00
  -1.680000      0.0000000E+00
  -1.670000      0.0000000E+00
  -1.660000      0.0000000E+00
  -1.650000      0.0000000E+00
  -1.640000      0.0000000E+00
  -1.630000      0.0000000E+00
  -1.620000      0.0000000E+00
  -1.610000      0.0000000E+00
  -1.600000      0.0000000E+00
  -1.590000      0.0000000E+00
  -1.580000      0.0000000E+00
  -1.570000      0.0000000E+00
  -1.560000      0.0000000E+00
  -1.550000      0.0000000E+00
  -1.540000      0.0000000E+00
  -1.530000      0.0000000E+00
  -1.520000      0.0000000E+00
  -1.510000      0.0000000E+00
  -1.500000      0.0000000E+00
  -1.490000      0.0000000E+00
  -1.480000      0.0000000E+00
  -1.470000      0.0000000E+00
  -1.460000      0.0000000E+00
  -1.450000      0.0000000E+00
  -1.440000      0.0000000E+00
  -1.430000      0.0000000E+00
  -1.420000      0.0000000E+00
  -1.410000      0.0000000E+00
  -1.400000      0.0000000E+00
  -1.390000      0.0000000E+00
  -1.380000      0.0000000E+00
  -1.370000      0.0000000E+00
  -1.360000      0.0000000E+00
  -1.350000      0.0000000E+00
  -1.340000      0.0000000E+00
  -1.330000      0.0000000E+00
  -1.320000      0.0000000E+00
  -1.310000      0.0000000E+00
  -1.300000      0.0000000E+00
  -1.290000      0.0000000E+00
  -1.280000      0.0000000E+00
  -1.270000      0.0000000E+00
  -1.260000      0.0000000E+00
  -1.250000      0.0000000E+00
  -1.240000      0.0000000E+00
  -1.230000      0.0000000E+00
  -1.220000      0.0000000E+00
  -1.210000      0.0000000E+00
  -1.200000      0.0000000E+00
  -1.190000      0.0000000E+00
  -1.180000      0.0000000E+00
  -1.170000      0.0000000E+00
  -1.160000      0.0000000E+00
  -1.150000      0.0000000E+00
  -1.140000      0.0000000E+00
  -1.130000      0.0000000E+00
  -1.120000      0.0000000E+00
  -1.110000      0.0000000E+00
  -1.100000      0.0000000E+00
  -1.090000      0.0000000E+00
  -1.080000      0.0000000E+00
  -1.070000      0.0000000E+00
  -1.060000      0.0000000E+00
  -1.050000      0.0000000E+00
  -1.040000      0.0000000E+00
  -1.030000      0.0000000E+00
  -1.020000      0.0000000E+00
  -1.010000      0.0000000E+00
  -1.000000      0.0000000E+00
 -0.9900000      0.0000000E+00
 -0.9800000      0.0000000E+00
 -0.9700000      0.0000000E+00
 -0.9600000      0.0000000E+00
 -0.9500000      0.0000000E+00
 -0.9400000      0.0000000E+00
 -0.9300000      0.0000000E+00
 -0.9200000      0.0000000E+00
 -0.9100000      0.0000000E+00
 -0.9000000      0.0000000E+00
 -0.8900000      0.0000000E+00
 -0.8800000      0.0000000E+00
 -0.8700000      0.0000000E+00
 -0.8600000      0.0000000E+00
 -0.8500000      0.0000000E+00
 -0.8400000      0.0000000E+00
 -0.8300000      0.0000000E+00
 -0.8200000      0.0000000E+00
 -0.8100000      0.0000000E+00
 -0.8000000      0.0000000E+00
 -0.7900000      0.0000000E+00
 -0.7800000      0.0000000E+00
 -0.7700000      0.0000000E+00
 -0.7600000      0.0000000E+00
 -0.7500000      0.0000000E+00
 -0.7400000      0.0000000E+00
 -0.7300000      0.0000000E+00
 -0.7200000      0.0000000E+00
 -0.7100000      0.0000000E+00
 -0.7000000      0.0000000E+00
 -0.6900000      0.0000000E+00
 -0.6800000      0.0000000E+00
 -0.6700000      0.0000000E+00
 -0.6600000      0.0000000E+00
 -0.6500000      0.0000000E+00
 -0.6400000      0.0000000E+00
 -0.6300000      0.0000000E+00
 -0.6200000      0.0000000E+00
 -0.6100000      0.0000000E+00
 -0.6000000      0.0000000E+00
 -0.5900000      0.0000000E+00
 -0.5800000      0.0000000E+00
 -0.5700000      0.0000000E+00
 -0.5600000      0.0000000E+00
 -0.5500000      0.0000000E+00
 -0.5400000      0.0000000E+00
 -0.5300000      0.0000000E+00
 -0.5200000      0.0000000E+00
 -0.5100000      0.0000000E+00
 -0.5000000      0.0000000E+00
 -0.4900000      0.0000000E+00
 -0.4800000      0.0000000E+00
 -0.4700000      0.0000000E+00
 -0.4600000      0.0000000E+00
 -0.4500000      0.0000000E+00
 -0.4400000      0.0000000E+00
 -0.4300000      0.0000000E+00
 -0.4200000      0.0000000E+00
 -0.4100000      0.0000000E+00
 -0.4000000      0.0000000E+00
 -0.3900000      0.0000000E+00
 -0.3800000      0.0000000E+00
 -0.3700000      0.0000000E+00
 -0.3600000      0.0000000E+00
 -0.3500000      0.0000000E+00
 -0.3400000      0.0000000E+00
 -0.3300000      0.0000000E+00
 -0.3200000      0.0000000E+00
 -0.3100000      0.0000000E+00
 -0.3000000      0.0000000E+00
 -0.2900000      0.0000000E+00
 -0.2800000      0.0000000E+00
 -0.2700000      0.0000000E+00
 -0.2600000      0.0000000E+00
 -0.2500000      0.0000000E+00
 -0.2400000      0.0000000E+00
 -0.2300000      0.0000000E+00
 -0.2200000      0.0000000E+00
 -0.2100000      0.0000000E+00
 -0.2000000      0.0000000E+00
 -0.1900000      0.0000000E+00
 -0.1800000      0.0000000E+00
 -0.1700000      0.0000000E+00
 -0.1600000      0.0000000E+00
 -0.1500000      0.0000000E+00
 -0.1400000      0.0000000E+00
 -0.1300000      0.0000000E+00
 -0.1200000      0.0000000E+00
 -0.1100000      0.0000000E+00
 -0.1000000      0.0000000E+00
 -9.0000004E-02  0.0000000E+00
 -7.9999998E-02  0.0000000E+00
 -7.0000000E-02  0.0000000E+00
 -5.9999999E-02  0.0000000E+00
 -5.0000001E-02  0.0000000E+00
 -3.9999999E-02  0.0000000E+00
 -2.9999999E-02  0.0000000E+00
 -2.0000000E-02  0.0000000E+00
 -9.9999998E-03  0.0000000E+00
 -3.4694470E-17  0.0000000E+00
  9.9999998E-03  0.0000000E+00
  2.0000000E-02  0.0000000E+00
  2.9999999E-02  0.0000000E+00
  3.9999999E-02  0.0000000E+00
  5.0000001E-02  0.0000000E+00
  5.9999999E-02  0.0000000E+00
  7.0000000E-02  0.0000000E+00
  7.9999998E-02  0.0000000E+00
  9.0000004E-02  0.0000000E+00
  0.1000000      0.0000000E+00
  0.1100000      0.0000000E+00
  0.1200000      0.0000000E+00
  0.1300000      0.0000000E+00
  0.1400000      0.0000000E+00
  0.1500000      0.0000000E+00
  0.1600000      0.0000000E+00
  0.1700000      0.0000000E+00
  0.1800000      0.0000000E+00
  0.1900000      0.0000000E+00
  0.2000000      0.0000000E+00
  0.2100000      0.0000000E+00
  0.2200000      0.0000000E+00
  0.2300000      0.0000000E+00
  0.2400000      0.0000000E+00
  0.2500000      0.0000000E+00
  0.2600000      0.0000000E+00
  0.2700000      0.0000000E+00
  0.2800000      0.0000000E+00
  0.2900000      0.0000000E+00
  0.3000000      0.0000000E+00
  0.3100000      0.0000000E+00
  0.3200000      0.0000000E+00
  0.3300000      0.0000000E+00
  0.3400000      0.0000000E+00
  0.3500000      0.0000000E+00
  0.3600000      0.0000000E+00
  0.3700000      0.0000000E+00
  0.3800000      0.0000000E+00
  0.3900000      0.0000000E+00
  0.4000000      0.0000000E+00
  0.4100000      0.0000000E+00
  0.4200000      0.0000000E+00
  0.4300000      0.0000000E+00
  0.4400000      0.0000000E+00
  0.4500000      0.0000000E+00
  0.4600000      0.0000000E+00
  0.4700000      0.0000000E+00
  0.4800000      0.0000000E+00
  0.4900000      0.0000000E+00
  0.5000000      0.0000000E+00
  0.5100000      0.0000000E+00
  0.5200000      0.0000000E+00
  0.5300000      0.0000000E+00
  0.5400000      0.0000000E+00
  0.5500000      0.0000000E+00
  0.5600000      0.0000000E+00
  0.5700000      0.0000000E+00
  0.5800000      0.0000000E+00
  0.5900000      0.0000000E+00
  0.6000000      0.0000000E+00
  0.6100000      0.0000000E+00
  0.6200000      0.0000000E+00
  0.6300000      0.0000000E+00
  0.6400000      0.0000000E+00
  0.6500000      0.0000000E+00
  0.6600000      0.0000000E+00
  0.6700000      0.0000000E+00
  0.6800000      0.0000000E+00
  0.6900000      0.0000000E+00
  0.7000000      0.0000000E+00
  0.7100000      0.0000000E+00
  0.7200000      0.0000000E+00
  0.7300000      0.0000000E+00
  0.7400000      0.0000000E+00
  0.7500000      0.0000000E+00
  0.7600000      0.0000000E+00
  0.7700000      0.0000000E+00
  0.7800000      0.0000000E+00
  0.7900000      0.0000000E+00
  0.8000000      0.0000000E+00
  0.8100000      0.0000000E+00
  0.8200000      0.0000000E+00
  0.8300000      0.0000000E+00
  0.8400000      0.0000000E+00
  0.8500000      0.0000000E+00
  0.8600000      0.0000000E+00
  0.8700000      0.0000000E+00
  0.8800000      0.0000000E+00
  0.8900000      0.0000000E+00
  0.9000000      0.0000000E+00
  0.9100000      0.0000000E+00
  0.9200000      0.0000000E+00
  0.9300000      0.0000000E+00
  0.9400000      0.0000000E+00
  0.9500000      0.0000000E+00
  0.9600000      0.0000000E+00
  0.9700000      0.0000000E+00
  0.9800000      0.0000000E+00
  0.9900000      0.0000000E+00
   1.000000      0.0000000E+00
   1.010000      0.0000000E+00
   1.020000      0.0000000E+00
   1.030000      0.0000000E+00
   1.040000      0.0000000E+00
   1.050000      0.0000000E+00
   1.060000      0.0000000E+00
   1.070000      0.0000000E+00
   1.080000      0.0000000E+00
   1.090000      0.0000000E+00
   1.100000      0.0000000E+00
   1.110000      0.0000000E+00
   1.120000      0.0000000E+00
   1.130000      0.0000000E+00
   1.140000      0.0000000E+00
   1.150000      0.0000000E+00
   1.160000      0.0000000E+00
   1.170000      0.0000000E+00
   1.180000      0.0000000E+00
   1.190000      0.0000000E+00
   1.200000      0.0000000E+00
   1.210000      0.0000000E+00
   1.220000      0.0000000E+00
   1.230000      0.0000000E+00
   1.240000      0.0000000E+00
   1.250000      0.0000000E+00
   1.260000      0.0000000E+00
   1.270000      0.0000000E+00
   1.280000      0.0000000E+00
   1.290000      0.0000000E+00
   1.300000      0.0000000E+00
   1.310000      0.0000000E+00
   1.320000      0.0000000E+00
   1.330000      0.0000000E+00
   1.340000      0.0000000E+00
   1.350000      0.0000000E+00
   1.360000      0.0000000E+00
   1.370000      0.0000000E+00
   1.380000      0.0000000E+00
   1.390000      0.0000000E+00
   1.400000      0.0000000E+00
   1.410000      0.0000000E+00
   1.420000      0.0000000E+00
   1.430000      0.0000000E+00
   1.440000      0.0000000E+00
   1.450000      0.0000000E+00
   1.460000      0.0000000E+00
   1.470000      0.0000000E+00
   1.480000      0.0000000E+00
   1.490000      0.0000000E+00
   1.500000      0.0000000E+00
   1.510000      0.0000000E+00
   1.520000      0.0000000E+00
   1.530000      0.0000000E+00
   1.540000      0.0000000E+00
   1.550000      0.0000000E+00
   1.560000      0.0000000E+00
   1.570000      0.0000000E+00
   1.580000      0.0000000E+00
   1.590000      0.0000000E+00
   1.600000      0.0000000E+00
   1.610000      0.0000000E+00
   1.620000      0.0000000E+00
   1.630000      0.0000000E+00
   1.640000      0.0000000E+00
   1.650000      0.0000000E+00
   1.660000      0.0000000E+00
   1.670000      0.0000000E+00
   1.680000      0.0000000E+00
   1.690000      0.0000000E+00
   1.700000      0.0000000E+00
   1.710000      0.0000000E+00
   1.720000      0.0000000E+00
   1.730000      0.0000000E+00
   1.740000      0.0000000E+00
   1.750000      0.0000000E+00
   1.760000      0.0000000E+00
   1.770000      0.0000000E+00
   1.780000      0.0000000E+00
   1.790000      0.0000000E+00
   1.800000      0.0000000E+00
   1.810000      0.0000000E+00
   1.820000      0.0000000E+00
   1.830000      0.0000000E+00
   1.840000      0.0000000E+00
   1.850000      0.0000000E+00
   1.860000      0.0000000E+00
   1.870000      0.0000000E+00
   1.880000      0.0000000E+00
   1.890000      0.0000000E+00
   1.900000      0.0000000E+00
   1.910000      0.0000000E+00
   1.920000      0.0000000E+00
   1.930000      0.0000000E+00
   1.940000      0.0000000E+00
   1.950000      0.0000000E+00
   1.960000      0.0000000E+00
   1.970000      0.0000000E+00
   1.980000      0.0000000E+00
   1.990000      0.0000000E+00
   2.000000      0.0000000E+00
   2.010000      0.0000000E+00
   2.020000      0.0000000E+00
   2.030000      0.0000000E+00
   2.040000      0.0000000E+00
   2.050000      0.0000000E+00
   2.060000      0.0000000E+00
   2.070000      0.0000000E+00
   2.080000      0.0000000E+00
   2.090000      0.0000000E+00
   2.100000      0.0000000E+00
   2.110000      0.0000000E+00
   2.120000      0.0000000E+00
   2.130000      0.0000000E+00
   2.140000      0.0000000E+00
   2.150000      0.0000000E+00
   2.160000      0.0000000E+00
   2.170000      0.0000000E+00
   2.180000      0.0000000E+00
   2.190000      0.0000000E+00
   2.200000      0.0000000E+00
   2.210000      0.0000000E+00
   2.220000      0.0000000E+00
   2.230000      0.0000000E+00
   2.240000      0.0000000E+00
   2.250000      0.0000000E+00
   2.260000      0.0000000E+00
   2.270000      0.0000000E+00
   2.280000      0.0000000E+00
   2.290000      0.0000000E+00
   2.300000      0.0000000E+00
   2.310000      0.0000000E+00
   2.320000      0.0000000E+00
   2.330000      0.0000000E+00
   2.340000      0.0000000E+00
   2.350000      0.0000000E+00
   2.360000      0.0000000E+00
   2.370000      0.0000000E+00
   2.380000      0.0000000E+00
   2.390000      0.0000000E+00
   2.400000      0.0000000E+00
   2.410000      0.0000000E+00
   2.420000      0.0000000E+00
   2.430000      0.0000000E+00
   2.440000      0.0000000E+00
   2.450000      0.0000000E+00
   2.460000      0.0000000E+00
   2.470000      0.0000000E+00
   2.480000      0.0000000E+00
   2.490000      0.0000000E+00
   2.500000      0.0000000E+00
   2.510000      0.0000000E+00
   2.520000      0.0000000E+00
   2.530000      0.0000000E+00
   2.540000      0.0000000E+00
   2.550000      0.0000000E+00
   2.560000      0.0000000E+00
   2.570000      0.0000000E+00
   2.580000      0.0000000E+00
   2.590000      0.0000000E+00
   2.600000      0.0000000E+00
   2.610000      0.0000000E+00
   2.620000      0.0000000E+00
   2.630000      0.0000000E+00
   2.640000      0.0000000E+00
   2.650000      0.0000000E+00
   2.660000      0.0000000E+00
   2.670000      0.0000000E+00
   2.680000      0.0000000E+00
   2.690000      0.0000000E+00
   2.700000      0.0000000E+00
   2.710000      0.0000000E+00
   2.720000      0.0000000E+00
   2.730000      0.0000000E+00
   2.740000      0.0000000E+00
   2.750000      0.0000000E+00
   2.760000      0.0000000E+00
   2.770000      0.0000000E+00
   2.780000      0.0000000E+00
   2.790000      0.0000000E+00
   2.800000      0.0000000E+00
   2.810000      0.0000000E+00
   2.820000      0.0000000E+00
   2.830000      0.0000000E+00
   2.840000      0.0000000E+00
   2.850000      0.0000000E+00
   2.860000      0.0000000E+00
   2.870000      0.0000000E+00
   2.880000      0.0000000E+00
   2.890000      0.0000000E+00
   2.900000      0.0000000E+00
   2.910000      0.0000000E+00
   2.920000      0.0000000E+00
   2.930000      0.0000000E+00
   2.940000      0.0000000E+00
   2.950000      0.0000000E+00
   2.960000      0.0000000E+00
   2.970000      0.0000000E+00
   2.980000      0.0000000E+00
   2.990000      0.0000000E+00
   3.000000      0.0000000E+00
   3.010000      0.0000000E+00
   3.020000      0.0000000E+00
   3.030000      0.0000000E+00
   3.040000      0.0000000E+00
   3.050000      0.0000000E+00
   3.060000      0.0000000E+00
   3.070000      0.0000000E+00
   3.080000      0.0000000E+00
   3.090000      0.0000000E+00
   3.100000      0.0000000E+00
   3.110000      0.0000000E+00
   3.120000      0.0000000E+00
   3.130000      0.0000000E+00
   3.140000      0.0000000E+00
   3.150000      0.0000000E+00
   3.160000      0.0000000E+00
   3.170000      0.0000000E+00
   3.180000      0.0000000E+00
   3.190000      0.0000000E+00
   3.200000      0.0000000E+00
   3.210000      0.0000000E+00
   3.220000      0.0000000E+00
   3.230000      0.0000000E+00
   3.240000      0.0000000E+00
   3.250000      0.0000000E+00
   3.260000      0.0000000E+00
   3.270000      0.0000000E+00
   3.280000      0.0000000E+00
   3.290000      0.0000000E+00
   3.300000      0.0000000E+00
   3.310000      0.0000000E+00
   3.320000      0.0000000E+00
   3.330000      0.0000000E+00
   3.340000      0.0000000E+00
   3.350000      0.0000000E+00
   3.360000      0.0000000E+00
   3.370000      0.0000000E+00
   3.380000      0.0000000E+00
   3.390000      0.0000000E+00
   3.400000      0.0000000E+00
   3.410000      0.0000000E+00
   3.420000      1.3479143E-38
   3.430000      1.6086440E-38
   3.440000      1.9248243E-38
   3.450000      2.2508607E-38
   3.460000      2.5200259E-38
   3.470000      2.5179159E-38
   3.480000      2.2884422E-38
   3.490000      2.0259226E-38
   3.500000      1.7774961E-38
   3.510000      1.5961133E-38
   3.520000      1.4657862E-38
   3.530000      1.4639191E-38
   3.540000      1.5892162E-38
   3.550000      1.9583684E-38
   3.560000      2.5427755E-38
   3.570000      3.2059512E-38
   3.580000      3.9483409E-38
   3.590000      4.6289126E-38
   3.600000      5.0881035E-38
   3.610000      5.4717437E-38
   3.620000      5.6375728E-38
   3.630000      5.3854170E-38
   3.640000      5.0620046E-38
   3.650000      4.7158917E-38
   3.660000      4.2625577E-38
   3.670000      3.6590470E-38
   3.680000      3.0023145E-38
   3.690000      2.4213877E-38
   3.700000      1.9042382E-38
   3.710000      1.5286815E-38
   3.720000      1.4384620E-38
   3.730000      1.5193408E-38
   3.740000      1.4004064E-38
   3.750000      0.0000000E+00
   3.760000      0.0000000E+00
   3.770000      0.0000000E+00
   3.780000      0.0000000E+00
   3.790000     -1.4440320E-38
   3.800000     -2.4767342E-38
   3.810000     -3.4897937E-38
   3.820000     -4.5235386E-38
   3.830000     -5.6353616E-38
   3.840000     -6.7677357E-38
   3.850000     -6.7121098E-38
   3.860000     -5.5138976E-38
   3.870000     -4.6751296E-38
   3.880000     -4.6644288E-38
   3.890000     -5.2951190E-38
   3.900000     -6.6664701E-38
   3.910000     -8.8760212E-38
   3.920000     -1.1412559E-37
   3.930000     -1.3774070E-37
   3.940000     -1.6101305E-37
   3.950000     -1.8819503E-37
   3.960000     -2.1746836E-37
   3.970000     -2.3148706E-37
   3.980000     -2.3449622E-37
   3.990000     -2.3258873E-37
   4.000000     -2.3173226E-37
   4.010000     -2.5675404E-37
   4.020000     -3.0518041E-37
   4.030000     -3.6886299E-37
   4.040000     -4.2217262E-37
   4.050000     -4.5432437E-37
   4.060000     -3.8523143E-37
   4.070000     -1.9736612E-37
   4.080000      2.9291838E-38
   4.090000      2.8124141E-37
   4.100000      4.8166763E-37
   4.110000      6.0858078E-37
   4.120000      7.7433906E-37
   4.130000      7.0709991E-37
   4.140000      2.9745062E-37
   4.150000     -2.3091497E-37
   4.160000     -9.2960284E-37
   4.170000     -1.6852933E-36
   4.180000     -2.1320527E-36
   4.190000     -2.2782046E-36
   4.200000     -2.3615692E-36
   4.210000     -2.4152113E-36
   4.220000     -2.4848841E-36
   4.230000     -2.5908781E-36
   4.240000     -2.3536822E-36
   4.250000     -1.8472979E-36
   4.260000     -1.4275262E-36
   4.270000     -9.3959560E-37
   4.280000     -3.8965079E-37
   4.290000      1.2915187E-37
   4.300000      5.3451505E-37
   4.310000      5.9352510E-37
   4.320000      3.8702635E-37
   4.330000      7.2288537E-38
   4.340000     -3.6313986E-37
   4.350000     -9.2780182E-37
   4.360000     -1.3802230E-36
   4.370000     -1.5483045E-36
   4.380000     -1.6928168E-36
   4.390000     -1.8676163E-36
   4.400000     -2.0560843E-36
   4.410000     -1.8903989E-36
   4.420000     -1.4614859E-36
   4.430000     -1.2008696E-36
   4.440000     -1.0378292E-36
   4.450000     -9.1526735E-37
   4.460000     -7.3324056E-37
   4.470000     -5.1424851E-37
   4.480000     -2.6586934E-37
   4.490000      1.0132028E-37
   4.500000      6.0679286E-37
   4.510000      1.2663045E-36
   4.520000      1.9815908E-36
   4.530000      2.6014137E-36
   4.540000      3.1867624E-36
   4.550000      3.8676878E-36
   4.560000      4.6091102E-36
   4.570000      5.4024788E-36
   4.580000      6.2855901E-36
   4.590000      7.1433746E-36
   4.600000      8.0514145E-36
   4.610000      9.0473676E-36
   4.620000      1.0069379E-35
   4.630000      1.0928111E-35
   4.640000      1.1470424E-35
   4.650000      1.2349474E-35
   4.660000      1.3442630E-35
   4.670000      1.4139002E-35
   4.680000      1.4934416E-35
   4.690000      1.5411586E-35
   4.700000      1.4938774E-35
   4.710000      1.4490350E-35
   4.720000      1.4776300E-35
   4.730000      1.4591210E-35
   4.740000      1.3792941E-35
   4.750000      1.3191231E-35
   4.760000      1.2509692E-35
   4.770000      1.1523447E-35
   4.780000      1.0957411E-35
   4.790000      1.0945227E-35
   4.800000      1.0244850E-35
   4.810000      1.0756844E-35
   4.820000      1.2802339E-35
   4.830000      1.5420483E-35
   4.840000      1.8914201E-35
   4.850000      1.9767397E-35
   4.860000      1.7837399E-35
   4.870000      1.5971741E-35
   4.880000      1.4141843E-35
   4.890000      1.2495907E-35
   4.900000      1.0651630E-35
   4.910000      6.9358823E-36
   4.920000     -3.0506080E-36
   4.930000     -1.9589991E-35
   4.940000     -3.7553317E-35
   4.950000     -5.0700305E-35
   4.960000     -5.8996615E-35
   4.970000     -6.2652994E-35
   4.980000     -6.1229888E-35
   4.990000     -5.8819315E-35
   5.000000     -5.5735640E-35
   5.010000     -5.4665682E-35
   5.020000     -5.5502929E-35
   5.030000     -5.4961495E-35
   5.040000     -5.1988241E-35
   5.050000     -4.7178517E-35
   5.060000     -4.1692018E-35
   5.070000     -4.6511014E-35
   5.080000     -6.8137593E-35
   5.090000     -1.0000748E-34
   5.100000     -1.3967300E-34
   5.110000     -1.7518528E-34
   5.120000     -1.9892914E-34
   5.130000     -2.0589658E-34
   5.140000     -1.9989458E-34
   5.150000     -1.9159834E-34
   5.160000     -1.8064681E-34
   5.170000     -1.7204029E-34
   5.180000     -1.6478960E-34
   5.190000     -1.4865523E-34
   5.200000     -1.3184963E-34
   5.210000     -1.2750580E-34
   5.220000     -1.2887579E-34
   5.230000     -1.2561105E-34
   5.240000     -1.1739615E-34
   5.250000     -1.0875272E-34
   5.260000     -1.0610415E-34
   5.270000     -1.0482706E-34
   5.280000     -9.6223890E-35
   5.290000     -8.7397282E-35
   5.300000     -7.8558804E-35
   5.310000     -6.9126288E-35
   5.320000     -5.9331700E-35
   5.330000     -4.8618687E-35
   5.340000     -3.5590786E-35
   5.350000     -2.7176448E-36
   5.360000      5.6961385E-35
   5.370000      1.3690868E-34
   5.380000      2.2802809E-34
   5.390000      3.1204565E-34
   5.400000      3.8142227E-34
   5.410000      4.4028586E-34
   5.420000      4.8299001E-34
   5.430000      5.0368496E-34
   5.440000      5.0926203E-34
   5.450000      5.0347291E-34
   5.460000      4.9786364E-34
   5.470000      5.0482767E-34
   5.480000      5.2539221E-34
   5.490000      5.6308071E-34
   5.500000      6.1916323E-34
   5.510000      6.9357858E-34
   5.520000      7.8565818E-34
   5.530000      8.9088944E-34
   5.540000      9.9998625E-34
   5.550000      1.1063475E-33
   5.560000      1.2052293E-33
   5.570000      1.2890801E-33
   5.580000      1.3534906E-33
   5.590000      1.3974107E-33
   5.600000      1.4216070E-33
   5.610000      1.4283658E-33
   5.620000      1.4219693E-33
   5.630000      1.4067861E-33
   5.640000      1.3882159E-33
   5.650000      1.3732789E-33
   5.660000      1.3646450E-33
   5.670000      1.3616598E-33
   5.680000      1.3678595E-33
   5.690000      1.3825959E-33
   5.700000      1.3981524E-33
   5.710000      1.4099870E-33
   5.720000      1.4150023E-33
   5.730000      1.4056292E-33
   5.740000      1.3705512E-33
   5.750000      1.3063719E-33
   5.760000      1.2132750E-33
   5.770000      1.0894848E-33
   5.780000      9.3638374E-34
   5.790000      7.6026121E-34
   5.800000      5.5959725E-34
   5.810000      3.4038811E-34
   5.820000      1.1135277E-34
   5.830000     -1.2588605E-34
   5.840000     -3.6595442E-34
   5.850000     -6.0910283E-34
   5.860000     -8.5659587E-34
   5.870000     -1.1103553E-33
   5.880000     -1.3724891E-33
   5.890000     -1.6528305E-33
   5.900000     -1.9641734E-33
   5.910000     -2.3068706E-33
   5.920000     -2.6814696E-33
   5.930000     -3.0942560E-33
   5.940000     -3.5457755E-33
   5.950000     -4.0337129E-33
   5.960000     -4.5535918E-33
   5.970000     -5.0993955E-33
   5.980000     -5.6650948E-33
   5.990000     -6.2440071E-33
   6.000000     -6.8286649E-33
   6.010000     -7.4149060E-33
   6.020000     -7.9999899E-33
   6.030000     -8.5799053E-33
   6.040000     -9.1545436E-33
   6.050000     -9.7245944E-33
   6.060000     -1.0291378E-32
   6.070000     -1.0856492E-32
   6.080000     -1.1420975E-32
   6.090000     -1.1986087E-32
   6.100000     -1.2551198E-32
   6.110000     -1.3113771E-32
   6.120000     -1.3669232E-32
   6.130000     -1.4211063E-32
   6.140000     -1.4731026E-32
   6.150000     -1.5219569E-32
   6.160000     -1.5666579E-32
   6.170000     -1.6061909E-32
   6.180000     -1.6395944E-32
   6.190000     -1.6660134E-32
   6.200000     -1.6847598E-32
   6.210000     -1.6952871E-32
   6.220000     -1.6971695E-32
   6.230000     -1.6901180E-32
   6.240000     -1.6738910E-32
   6.250000     -1.6482545E-32
   6.260000     -1.6129679E-32
   6.270000     -1.5676642E-32
   6.280000     -1.5118021E-32
   6.290000     -1.4446940E-32
   6.300000     -1.3654775E-32
   6.310000     -1.2731383E-32
   6.320000     -1.1665460E-32
   6.330000     -1.0445053E-32
   6.340000     -9.0582750E-33
   6.350000     -7.4938962E-33
   6.360000     -5.7417848E-33
   6.370000     -3.7936557E-33
   6.380000     -1.6439336E-33
   6.390000      7.1324681E-34
   6.400000      3.2817014E-33
   6.410000      6.0615938E-33
   6.420000      9.0526686E-33
   6.430000      1.2254070E-32
   6.440000      1.5664918E-32
   6.450000      1.9284470E-32
   6.460000      2.3112392E-32
   6.470000      2.7148918E-32
   6.480000      3.1394803E-32
   6.490000      3.5850923E-32
   6.500000      4.0517985E-32
   6.510000      4.5395526E-32
   6.520000      5.0481605E-32
   6.530000      5.5772481E-32
   6.540000      6.1261652E-32
   6.550000      6.6939631E-32
   6.560000      7.2793734E-32
   6.570000      7.8808062E-32
   6.580000      8.4963685E-32
   6.590000      9.1238909E-32
   6.600000      9.7609730E-32
   6.610000      1.0405027E-31
   6.620000      1.1053318E-31
   6.630000      1.1702997E-31
   6.640000      1.2351125E-31
   6.650000      1.2994670E-31
   6.660000      1.3630505E-31
   6.670000      1.4255369E-31
   6.680000      1.4865833E-31
   6.690000      1.5458244E-31
   6.700000      1.6028685E-31
   6.710000      1.6572919E-31
   6.720000      1.7086355E-31
   6.730000      1.7564034E-31
   6.740000      1.8000620E-31
   6.750000      1.8390415E-31
   6.760000      1.8727378E-31
   6.770000      1.9005186E-31
   6.780000      1.9217283E-31
   6.790000      1.9356935E-31
   6.800000      1.9417288E-31
   6.810000      1.9391404E-31
   6.820000      1.9272300E-31
   6.830000      1.9052979E-31
   6.840000      1.8726431E-31
   6.850000      1.8285639E-31
   6.860000      1.7723544E-31
   6.870000      1.7033055E-31
   6.880000      1.6207014E-31
   6.890000      1.5238201E-31
   6.900000      1.4119311E-31
   6.910000      1.2842998E-31
   6.920000      1.1401908E-31
   6.930000      9.7887153E-32
   6.940000      7.9962033E-32
   6.950000      6.0173374E-32
   6.960000      3.8453735E-32
   6.970000      1.4739434E-32
   6.980000     -1.1028498E-32
   6.990000     -3.8903412E-32
   7.000000     -6.8932247E-32
   7.010000     -1.0115489E-31
   7.020000     -1.3560358E-31
   7.030000     -1.7230273E-31
   7.040000     -2.1126838E-31
   7.050000     -2.5250804E-31
   7.060000     -2.9602044E-31