  -2.600000      0.0000000E+00
  -2.590000      0.0000000E+00
  -2.580000      0.0000000E+00
  -2.570000      0.0000000E+00
  -2.560000      0.0000000E+00
  -2.550000      0.0000000E+00
  -2.540000      0.0000000E+00
  -2.530000      0.0000000E+00
  -2.520000      0.0000000E+00
  -2.510000      0.0000000E+00
  -2.500000      0.0000000E+00
  -2.490000      0.0000000E+00
  -2.480000      0.0000000E+00
  -2.470000      0.0000000E+00
  -2.460000      0.0000000E+00
  -2.450000      0.0000000E+00
  -2.440000      0.0000000E+00
  -2.430000      0.0000000E+00
  -2.420000      0.0000000E+00
  -2.410000      0.0000000E+00
  -2.400000      0.0000000E+00
  -2.390000      0.0000000E+00
  -2.380000      0.0000000E+00
  -2.370000      0.0000000E+00
  -2.360000      0.0000000E+00
  -2.350000      0.0000000E+00
  -2.340000      0.0000000E+00
  -2.330000      0.0000000E+00
  -2.320000      0.0000000E+00
  -2.310000      0.0000000E+00
  -2.300000      0.0000000E+00
  -2.290000      0.0000000E+00
  -2.280000      0.0000000E+00
  -2.270000      0.0000000E+00
  -2.260000      0.0000000E+00
  -2.250000      0.0000000E+00
  -2.240000      0.0000000E+00
  -2.230000      0.0000000E+00
  -2.220000      0.0000000E+00
  -2.210000      0.0000000E+00
  -2.200000      0.0000000E+00
  -2.190000      0.0000000E+00
  -2.180000      0.0000000E+00
  -2.170000      0.0000000E+00
  -2.160000      0.0000000E+00
  -2.150000      0.0000000E+00
  -2.140000      0.0000000E+00
  -2.130000      0.0000000E+00
  -2.120000      0.0000000E+00
  -2.110000      0.0000000E+00
  -2.100000      0.0000000E+00
  -2.090000      0.0000000E+00
  -2.080000      0.0000000E+00
  -2.070000      0.0000000E+00
  -2.060000      0.0000000E+00
  -2.050000      0.0000000E+00
  -2.040000      0.0000000E+00
  -2.030000      0.0000000E+00
  -2.020000      0.0000000E+00
  -2.010000      0.0000000E+00
  -2.000000      0.0000000E+00
  -1.990000      0.0000000E+00
  -1.980000      0.0000000E+00
  -1.970000      0.0000000E+00
  -1.960000      0.0000000E+00
  -1.950000      0.0000000E+00
  -1.940000      0.0000000E+00
  -1.930000      0.0000000E+00
  -1.920000      0.0000000E+00
  -1.910000      0.0000000E+00
  -1.900000      0.0000000E+00
  -1.890000      0.0000000E+00
  -1.880000      0.0000000E+00
  -1.870000      0.0000000E+00
  -1.860000      0.0000000E+00
  -1.850000      0.0000000E+00
  -1.840000      0.0000000E+00
  -1.830000      0.0000000E+00
  -1.820000      0.0000000E+00
  -1.810000      0.0000000E+00
  -1.800000      0.0000000E+00
  -1.790000      0.0000000E+00
  -1.780000      0.0000000E+00
  -1.770000      0.0000000E+00
  -1.760000      0.0000000E+00
  -1.750000      0.0000000E+00
  -1.740000      0.0000000E+00
  -1.730000      0.0000000E+00
  -1.720000      0.0000000E+00
  -1.710000      0.0000000E+00
  -1.700000      0.0000000E+00
  -1.690000      0.0000000E+00
  -1.680000      0.0000000E+00
  -1.670000      0.0000000E+00
  -1.660000      0.0000000E+00
  -1.650000      0.0000000E+00
  -1.640000      0.0000000E+00
  -1.630000      0.0000000E+00
  -1.620000      0.0000000E+00
  -1.610000      0.0000000E+00
  -1.600000      0.0000000E+00
  -1.590000      0.0000000E+00
  -1.580000      0.0000000E+00
  -1.570000      0.0000000E+00
  -1.560000      0.0000000E+00
  -1.550000      0.0000000E+00
  -1.540000      0.0000000E+00
  -1.530000      0.0000000E+00
  -1.520000      0.0000000E+00
  -1.510000      0.0000000E+00
  -1.500000      0.0000000E+00
  -1.490000      0.0000000E+00
  -1.480000      0.0000000E+00
  -1.470000      0.0000000E+00
  -1.460000      0.0000000E+00
  -1.450000      0.0000000E+00
  -1.440000      0.0000000E+00
  -1.430000      0.0000000E+00
  -1.420000      0.0000000E+00
  -1.410000      0.0000000E+00
  -1.400000      0.0000000E+00
  -1.390000      0.0000000E+00
  -1.380000      0.0000000E+00
  -1.370000      0.0000000E+00
  -1.360000      0.0000000E+00
  -1.350000      0.0000000E+00
  -1.340000      0.0000000E+00
  -1.330000      0.0000000E+00
  -1.320000      0.0000000E+00
  -1.310000      0.0000000E+00
  -1.300000      0.0000000E+00
  -1.290000      0.0000000E+00
  -1.280000      0.0000000E+00
  -1.270000      0.0000000E+00
  -1.260000      0.0000000E+00
  -1.250000      0.0000000E+00
  -1.240000      0.0000000E+00
  -1.230000      0.0000000E+00
  -1.220000      0.0000000E+00
  -1.210000      0.0000000E+00
  -1.200000      0.0000000E+00
  -1.190000      0.0000000E+00
  -1.180000      0.0000000E+00
  -1.170000      0.0000000E+00
  -1.160000      0.0000000E+00
  -1.150000      0.0000000E+00
  -1.140000      0.0000000E+00
  -1.130000      0.0000000E+00
  -1.120000      0.0000000E+00
  -1.110000      0.0000000E+00
  -1.100000      0.0000000E+00
  -1.090000      0.0000000E+00
  -1.080000      0.0000000E+00
  -1.070000      0.0000000E+00
  -1.060000      0.0000000E+00
  -1.050000      0.0000000E+00
  -1.040000      0.0000000E+00
  -1.030000      0.0000000E+00
  -1.020000      0.0000000E+00
  -1.010000      0.0000000E+00
  -1.000000      0.0000000E+00
 -0.9900000      0.0000000E+00
 -0.9800000      0.0000000E+00
 -0.9700000      0.0000000E+00
 -0.9600000      0.0000000E+00
 -0.9500000      0.0000000E+00
 -0.9400000      0.0000000E+00
 -0.9300000      0.0000000E+00
 -0.9200000      0.0000000E+00
 -0.9100000      0.0000000E+00
 -0.9000000      0.0000000E+00
 -0.8900000      0.0000000E+00
 -0.8800000      0.0000000E+00
 -0.8700000      0.0000000E+00
 -0.8600000      0.0000000E+00
 -0.8500000      0.0000000E+00
 -0.8400000      0.0000000E+00
 -0.8300000      0.0000000E+00
 -0.8200000      0.0000000E+00
 -0.8100000      0.0000000E+00
 -0.8000000      0.0000000E+00
 -0.7900000      0.0000000E+00
 -0.7800000      0.0000000E+00
 -0.7700000      0.0000000E+00
 -0.7600000      0.0000000E+00
 -0.7500000      0.0000000E+00
 -0.7400000      0.0000000E+00
 -0.7300000      0.0000000E+00
 -0.7200000      0.0000000E+00
 -0.7100000      0.0000000E+00
 -0.7000000      0.0000000E+00
 -0.6900000      0.0000000E+00
 -0.6800000      0.0000000E+00
 -0.6700000      0.0000000E+00
 -0.6600000      0.0000000E+00
 -0.6500000      0.0000000E+00
 -0.6400000      0.0000000E+00
 -0.6300000      0.0000000E+00
 -0.6200000      0.0000000E+00
 -0.6100000      0.0000000E+00
 -0.6000000      0.0000000E+00
 -0.5900000      0.0000000E+00
 -0.5800000      0.0000000E+00
 -0.5700000      0.0000000E+00
 -0.5600000      0.0000000E+00
 -0.5500000      0.0000000E+00
 -0.5400000      0.0000000E+00
 -0.5300000      0.0000000E+00
 -0.5200000      0.0000000E+00
 -0.5100000      0.0000000E+00
 -0.5000000      0.0000000E+00
 -0.4900000      0.0000000E+00
 -0.4800000      0.0000000E+00
 -0.4700000      0.0000000E+00
 -0.4600000      0.0000000E+00
 -0.4500000      0.0000000E+00
 -0.4400000      0.0000000E+00
 -0.4300000      0.0000000E+00
 -0.4200000      0.0000000E+00
 -0.4100000      0.0000000E+00
 -0.4000000      0.0000000E+00
 -0.3900000      0.0000000E+00
 -0.3800000      0.0000000E+00
 -0.3700000      0.0000000E+00
 -0.3600000      0.0000000E+00
 -0.3500000      0.0000000E+00
 -0.3400000      0.0000000E+00
 -0.3300000      0.0000000E+00
 -0.3200000      0.0000000E+00
 -0.3100000      0.0000000E+00
 -0.3000000      0.0000000E+00
 -0.2900000      0.0000000E+00
 -0.2800000      0.0000000E+00
 -0.2700000      0.0000000E+00
 -0.2600000      0.0000000E+00
 -0.2500000      0.0000000E+00
 -0.2400000      0.0000000E+00
 -0.2300000      0.0000000E+00
 -0.2200000      0.0000000E+00
 -0.2100000      0.0000000E+00
 -0.2000000      0.0000000E+00
 -0.1900000      0.0000000E+00
 -0.1800000      0.0000000E+00
 -0.1700000      0.0000000E+00
 -0.1600000      0.0000000E+00
 -0.1500000      0.0000000E+00
 -0.1400000      0.0000000E+00
 -0.1300000      0.0000000E+00
 -0.1200000      0.0000000E+00
 -0.1100000      0.0000000E+00
 -0.1000000      0.0000000E+00
 -9.0000004E-02  0.0000000E+00
 -7.9999998E-02  0.0000000E+00
 -7.0000000E-02  0.0000000E+00
 -5.9999999E-02  0.0000000E+00
 -5.0000001E-02  0.0000000E+00
 -3.9999999E-02  0.0000000E+00
 -2.9999999E-02  0.0000000E+00
 -2.0000000E-02  0.0000000E+00
 -9.9999998E-03  0.0000000E+00
 -3.4694470E-17  0.0000000E+00
  9.9999998E-03  0.0000000E+00
  2.0000000E-02  0.0000000E+00
  2.9999999E-02  0.0000000E+00
  3.9999999E-02  0.0000000E+00
  5.0000001E-02  0.0000000E+00
  5.9999999E-02  0.0000000E+00
  7.0000000E-02  0.0000000E+00
  7.9999998E-02  0.0000000E+00
  9.0000004E-02  0.0000000E+00
  0.1000000      0.0000000E+00
  0.1100000      0.0000000E+00
  0.1200000      0.0000000E+00
  0.1300000      0.0000000E+00
  0.1400000      0.0000000E+00
  0.1500000      0.0000000E+00
  0.1600000      0.0000000E+00
  0.1700000      0.0000000E+00
  0.1800000      0.0000000E+00
  0.1900000      0.0000000E+00
  0.2000000      0.0000000E+00
  0.2100000      0.0000000E+00
  0.2200000      0.0000000E+00
  0.2300000      0.0000000E+00
  0.2400000      0.0000000E+00
  0.2500000      0.0000000E+00
  0.2600000      0.0000000E+00
  0.2700000      0.0000000E+00
  0.2800000      0.0000000E+00
  0.2900000      0.0000000E+00
  0.3000000      0.0000000E+00
  0.3100000      0.0000000E+00
  0.3200000      0.0000000E+00
  0.3300000      0.0000000E+00
  0.3400000      0.0000000E+00
  0.3500000      0.0000000E+00
  0.3600000      0.0000000E+00
  0.3700000      0.0000000E+00
  0.3800000      0.0000000E+00
  0.3900000      0.0000000E+00
  0.4000000      0.0000000E+00
  0.4100000      0.0000000E+00
  0.4200000      0.0000000E+00
  0.4300000      0.0000000E+00
  0.4400000      0.0000000E+00
  0.4500000      0.0000000E+00
  0.4600000      0.0000000E+00
  0.4700000      0.0000000E+00
  0.4800000      0.0000000E+00
  0.4900000      0.0000000E+00
  0.5000000      0.0000000E+00
  0.5100000      0.0000000E+00
  0.5200000      0.0000000E+00
  0.5300000      0.0000000E+00
  0.5400000      0.0000000E+00
  0.5500000      0.0000000E+00
  0.5600000      0.0000000E+00
  0.5700000      0.0000000E+00
  0.5800000      0.0000000E+00
  0.5900000      0.0000000E+00
  0.6000000      0.0000000E+00
  0.6100000      0.0000000E+00
  0.6200000      0.0000000E+00
  0.6300000      0.0000000E+00
  0.6400000      0.0000000E+00
  0.6500000      0.0000000E+00
  0.6600000      0.0000000E+00
  0.6700000      0.0000000E+00
  0.6800000      0.0000000E+00
  0.6900000      0.0000000E+00
  0.7000000      0.0000000E+00
  0.7100000      0.0000000E+00
  0.7200000      0.0000000E+00
  0.7300000      0.0000000E+00
  0.7400000      0.0000000E+00
  0.7500000      0.0000000E+00
  0.7600000      0.0000000E+00
  0.7700000      0.0000000E+00
  0.7800000      0.0000000E+00
  0.7900000      0.0000000E+00
  0.8000000      0.0000000E+00
  0.8100000      0.0000000E+00
  0.8200000      0.0000000E+00
  0.8300000      0.0000000E+00
  0.8400000      0.0000000E+00
  0.8500000      0.0000000E+00
  0.8600000      0.0000000E+00
  0.8700000      0.0000000E+00
  0.8800000      0.0000000E+00
  0.8900000      0.0000000E+00
  0.9000000      0.0000000E+00
  0.9100000      0.0000000E+00
  0.9200000      0.0000000E+00
  0.9300000      0.0000000E+00
  0.9400000      0.0000000E+00
  0.9500000      0.0000000E+00
  0.9600000      0.0000000E+00
  0.9700000      0.0000000E+00
  0.9800000      0.0000000E+00
  0.9900000      0.0000000E+00
   1.000000      0.0000000E+00
   1.010000      0.0000000E+00
   1.020000      0.0000000E+00
   1.030000      0.0000000E+00
   1.040000      0.0000000E+00
   1.050000      0.0000000E+00
   1.060000      0.0000000E+00
   1.070000      0.0000000E+00
   1.080000      0.0000000E+00
   1.090000      0.0000000E+00
   1.100000      0.0000000E+00
   1.110000      0.0000000E+00
   1.120000      0.0000000E+00
   1.130000      0.0000000E+00
   1.140000      0.0000000E+00
   1.150000      0.0000000E+00
   1.160000      0.0000000E+00
   1.170000      0.0000000E+00
   1.180000      0.0000000E+00
   1.190000      0.0000000E+00
   1.200000      0.0000000E+00
   1.210000      0.0000000E+00
   1.220000      0.0000000E+00
   1.230000      0.0000000E+00
   1.240000      0.0000000E+00
   1.250000      0.0000000E+00
   1.260000      0.0000000E+00
   1.270000      0.0000000E+00
   1.280000      0.0000000E+00
   1.290000      0.0000000E+00
   1.300000      0.0000000E+00
   1.310000      0.0000000E+00
   1.320000      0.0000000E+00
   1.330000      0.0000000E+00
   1.340000      0.0000000E+00
   1.350000      0.0000000E+00
   1.360000      0.0000000E+00
   1.370000      0.0000000E+00
   1.380000      0.0000000E+00
   1.390000      0.0000000E+00
   1.400000      0.0000000E+00
   1.410000      0.0000000E+00
   1.420000      0.0000000E+00
   1.430000      0.0000000E+00
   1.440000      0.0000000E+00
   1.450000      0.0000000E+00
   1.460000      0.0000000E+00
   1.470000      0.0000000E+00
   1.480000      0.0000000E+00
   1.490000      0.0000000E+00
   1.500000      0.0000000E+00
   1.510000      0.0000000E+00
   1.520000      0.0000000E+00
   1.530000      0.0000000E+00
   1.540000      0.0000000E+00
   1.550000      0.0000000E+00
   1.560000      0.0000000E+00
   1.570000      0.0000000E+00
   1.580000      0.0000000E+00
   1.590000      0.0000000E+00
   1.600000      0.0000000E+00
   1.610000      0.0000000E+00
   1.620000      0.0000000E+00
   1.630000      0.0000000E+00
   1.640000      0.0000000E+00
   1.650000      0.0000000E+00
   1.660000      0.0000000E+00
   1.670000      0.0000000E+00
   1.680000      0.0000000E+00
   1.690000      0.0000000E+00
   1.700000      0.0000000E+00
   1.710000      0.0000000E+00
   1.720000      0.0000000E+00
   1.730000      0.0000000E+00
   1.740000      0.0000000E+00
   1.750000      0.0000000E+00
   1.760000      0.0000000E+00
   1.770000      0.0000000E+00
   1.780000      0.0000000E+00
   1.790000      0.0000000E+00
   1.800000      0.0000000E+00
   1.810000      0.0000000E+00
   1.820000      0.0000000E+00
   1.830000      0.0000000E+00
   1.840000      0.0000000E+00
   1.850000      0.0000000E+00
   1.860000      0.0000000E+00
   1.870000      0.0000000E+00
   1.880000      0.0000000E+00
   1.890000      0.0000000E+00
   1.900000      0.0000000E+00
   1.910000      0.0000000E+00
   1.920000      0.0000000E+00
   1.930000      0.0000000E+00
   1.940000      0.0000000E+00
   1.950000      0.0000000E+00
   1.960000      0.0000000E+00
   1.970000      0.0000000E+00
   1.980000      0.0000000E+00
   1.990000      0.0000000E+00
   2.000000      0.0000000E+00
   2.010000      0.0000000E+00
   2.020000      0.0000000E+00
   2.030000      0.0000000E+00
   2.040000      0.0000000E+00
   2.050000      0.0000000E+00
   2.060000      0.0000000E+00
   2.070000      0.0000000E+00
   2.080000      0.0000000E+00
   2.090000      0.0000000E+00
   2.100000      0.0000000E+00
   2.110000      0.0000000E+00
   2.120000      0.0000000E+00
   2.130000      0.0000000E+00
   2.140000      0.0000000E+00
   2.150000      0.0000000E+00
   2.160000      0.0000000E+00
   2.170000      0.0000000E+00
   2.180000      0.0000000E+00
   2.190000      0.0000000E+00
   2.200000      0.0000000E+00
   2.210000      0.0000000E+00
   2.220000      0.0000000E+00
   2.230000      0.0000000E+00
   2.240000      0.0000000E+00
   2.250000      0.0000000E+00
   2.260000      0.0000000E+00
   2.270000      0.0000000E+00
   2.280000      0.0000000E+00
   2.290000      0.0000000E+00
   2.300000      0.0000000E+00
   2.310000      0.0000000E+00
   2.320000      0.0000000E+00
   2.330000      0.0000000E+00
   2.340000      0.0000000E+00
   2.350000      0.0000000E+00
   2.360000      0.0000000E+00
   2.370000      0.0000000E+00
   2.380000      0.0000000E+00
   2.390000      0.0000000E+00
   2.400000      0.0000000E+00
   2.410000      0.0000000E+00
   2.420000      0.0000000E+00
   2.430000      0.0000000E+00
   2.440000      0.0000000E+00
   2.450000      0.0000000E+00
   2.460000      0.0000000E+00
   2.470000      0.0000000E+00
   2.480000      0.0000000E+00
   2.490000      0.0000000E+00
   2.500000      0.0000000E+00
   2.510000      0.0000000E+00
   2.520000      0.0000000E+00
   2.530000      0.0000000E+00
   2.540000      0.0000000E+00
   2.550000      0.0000000E+00
   2.560000      0.0000000E+00
   2.570000      0.0000000E+00
   2.580000      0.0000000E+00
   2.590000      0.0000000E+00
   2.600000      0.0000000E+00
   2.610000      0.0000000E+00
   2.620000      0.0000000E+00
   2.630000      0.0000000E+00
   2.640000      0.0000000E+00
   2.650000      0.0000000E+00
   2.660000      0.0000000E+00
   2.670000      0.0000000E+00
   2.680000      0.0000000E+00
   2.690000      0.0000000E+00
   2.700000      0.0000000E+00
   2.710000      0.0000000E+00
   2.720000      0.0000000E+00
   2.730000      0.0000000E+00
   2.740000      0.0000000E+00
   2.750000      0.0000000E+00
   2.760000      0.0000000E+00
   2.770000      0.0000000E+00
   2.780000      0.0000000E+00
   2.790000      0.0000000E+00
   2.800000      0.0000000E+00
   2.810000      0.0000000E+00
   2.820000      0.0000000E+00
   2.830000      0.0000000E+00
   2.840000      0.0000000E+00
   2.850000      0.0000000E+00
   2.860000      0.0000000E+00
   2.870000      0.0000000E+00
   2.880000      0.0000000E+00
   2.890000      0.0000000E+00
   2.900000      0.0000000E+00
   2.910000      0.0000000E+00
   2.920000      0.0000000E+00
   2.930000      0.0000000E+00
   2.940000      0.0000000E+00
   2.950000      0.0000000E+00
   2.960000      0.0000000E+00
   2.970000      0.0000000E+00
   2.980000      0.0000000E+00
   2.990000      0.0000000E+00
   3.000000      0.0000000E+00
   3.010000      0.0000000E+00
   3.020000      0.0000000E+00
   3.030000      0.0000000E+00
   3.040000      0.0000000E+00
   3.050000      0.0000000E+00
   3.060000      0.0000000E+00
   3.070000      0.0000000E+00
   3.080000      0.0000000E+00
   3.090000      0.0000000E+00
   3.100000      0.0000000E+00
   3.110000      0.0000000E+00
   3.120000      0.0000000E+00
   3.130000      0.0000000E+00
   3.140000      0.0000000E+00
   3.150000      0.0000000E+00
   3.160000      0.0000000E+00
   3.170000      0.0000000E+00
   3.180000      0.0000000E+00
   3.190000      0.0000000E+00
   3.200000      0.0000000E+00
   3.210000      0.0000000E+00
   3.220000      0.0000000E+00
   3.230000      0.0000000E+00
   3.240000      0.0000000E+00
   3.250000      0.0000000E+00
   3.260000      0.0000000E+00
   3.270000      0.0000000E+00
   3.280000      0.0000000E+00
   3.290000      0.0000000E+00
   3.300000      0.0000000E+00
   3.310000      0.0000000E+00
   3.320000      0.0000000E+00
   3.330000      0.0000000E+00
   3.340000      0.0000000E+00
   3.350000      0.0000000E+00
   3.360000      0.0000000E+00
   3.370000      0.0000000E+00
   3.380000      0.0000000E+00
   3.390000      0.0000000E+00
   3.400000      0.0000000E+00
   3.410000      0.0000000E+00
   3.420000      0.0000000E+00
   3.430000      0.0000000E+00
   3.440000      0.0000000E+00
   3.450000      0.0000000E+00
   3.460000      0.0000000E+00
   3.470000      0.0000000E+00
   3.480000      0.0000000E+00
   3.490000      0.0000000E+00
   3.500000      0.0000000E+00
   3.510000      0.0000000E+00
   3.520000      1.2280400E-38
   3.530000      1.5498470E-38
   3.540000      1.8787632E-38
   3.550000      2.1495851E-38
   3.560000      2.3546183E-38
   3.570000      2.5319316E-38
   3.580000      2.6909717E-38
   3.590000      3.0490001E-38
   3.600000      3.6614673E-38
   3.610000      4.2915598E-38
   3.620000      4.8758404E-38
   3.630000      5.4541154E-38
   3.640000      5.9832709E-38
   3.650000      6.4790497E-38
   3.660000      6.9810924E-38
   3.670000      7.4690111E-38
   3.680000      7.9691956E-38
   3.690000      8.4538117E-38
   3.700000      8.9195327E-38
   3.710000      9.3760079E-38
   3.720000      9.7613621E-38
   3.730000      1.0065877E-37
   3.740000      1.0403099E-37
   3.750000      1.0809408E-37
   3.760000      1.1190170E-37
   3.770000      1.1517797E-37
   3.780000      1.1903477E-37
   3.790000      1.2345200E-37
   3.800000      1.2718310E-37
   3.810000      1.3036424E-37
   3.820000      1.3295040E-37
   3.830000      1.3508646E-37
   3.840000      1.3545711E-37
   3.850000      1.2899462E-37
   3.860000      1.1755181E-37
   3.870000      1.0916058E-37
   3.880000      1.0347282E-37
   3.890000      9.7154747E-38
   3.900000      8.9472369E-38
   3.910000      7.8895783E-38
   3.920000      6.1798170E-38
   3.930000      3.9682152E-38
   3.940000      0.0000000E+00
   3.950000     -2.5732293E-38
   3.960000     -6.4540691E-38
   3.970000     -1.1171348E-37
   3.980000     -1.6630460E-37
   3.990000     -2.2034831E-37
   4.000000     -2.7208089E-37
   4.010000     -3.2056761E-37
   4.020000     -3.5356303E-37
   4.030000     -3.7199190E-37
   4.040000     -3.9434888E-37
   4.050000     -4.2055025E-37
   4.060000     -4.4663736E-37
   4.070000     -4.7637964E-37
   4.080000     -5.1514382E-37
   4.090000     -5.6208202E-37
   4.100000     -6.1048664E-37
   4.110000     -6.5117725E-37
   4.120000     -6.9810627E-37
   4.130000     -7.7615344E-37
   4.140000     -8.7069826E-37
   4.150000     -9.4472762E-37
   4.160000     -9.8248780E-37
   4.170000     -1.0119586E-36
   4.180000     -1.0481601E-36
   4.190000     -1.0969842E-36
   4.200000     -1.1590232E-36
   4.210000     -1.2282982E-36
   4.220000     -1.3018447E-36
   4.230000     -1.3614126E-36
   4.240000     -1.3814647E-36
   4.250000     -1.3721100E-36
   4.260000     -1.3459591E-36
   4.270000     -1.3135219E-36
   4.280000     -1.2738365E-36
   4.290000     -1.2213089E-36
   4.300000     -1.1251063E-36
   4.310000     -9.9360536E-37
   4.320000     -8.5327929E-37
   4.330000     -8.7896704E-37
   4.340000     -1.0924219E-36
   4.350000     -1.3225550E-36
   4.360000     -1.5582355E-36
   4.370000     -1.6117892E-36
   4.380000     -1.5604576E-36
   4.390000     -1.5849363E-36
   4.400000     -1.5023989E-36
   4.410000     -1.2957139E-36
   4.420000     -1.0685202E-36
   4.430000     -8.2075715E-37
   4.440000     -4.2806296E-37
   4.450000      4.4860995E-38
   4.460000      4.4490486E-37
   4.470000      8.1135064E-37
   4.480000      1.1164296E-36
   4.490000      1.4600228E-36
   4.500000      1.8488546E-36
   4.510000      2.2122649E-36
   4.520000      2.6023367E-36
   4.530000      3.0142204E-36
   4.540000      3.4538702E-36
   4.550000      4.0543248E-36
   4.560000      4.8292718E-36
   4.570000      5.6751036E-36
   4.580000      6.4490301E-36
   4.590000      7.2078940E-36
   4.600000      8.0027934E-36
   4.610000      8.7331195E-36
   4.620000      9.5144279E-36
   4.630000      1.0497213E-35
   4.640000      1.1840634E-35
   4.650000      1.3384087E-35
   4.660000      1.4903752E-35
   4.670000      1.6467446E-35
   4.680000      1.8404076E-35
   4.690000      2.0570286E-35
   4.700000      2.2763424E-35
   4.710000      2.5129538E-35
   4.720000      2.6969396E-35
   4.730000      2.7757181E-35
   4.740000      2.7937451E-35
   4.750000      2.7943653E-35
   4.760000      2.7769935E-35
   4.770000      2.7293159E-35
   4.780000      2.6449125E-35
   4.790000      2.5051337E-35
   4.800000      2.2992634E-35
   4.810000      2.0490511E-35
   4.820000      1.7722955E-35
   4.830000      1.4852582E-35
   4.840000      1.1940070E-35
   4.850000      9.0881289E-36
   4.860000      6.2919182E-36
   4.870000      1.7009322E-36
   4.880000     -4.4925824E-36
   4.890000     -9.2696741E-36
   4.900000     -1.1090401E-35
   4.910000     -1.1473829E-35
   4.920000     -1.2669100E-35
   4.930000     -1.6082268E-35
   4.940000     -2.1777969E-35
   4.950000     -2.7066389E-35
   4.960000     -3.1340992E-35
   4.970000     -3.6063191E-35
   4.980000     -4.0845542E-35
   4.990000     -4.3758010E-35
   5.000000     -4.2537487E-35
   5.010000     -3.8363782E-35
   5.020000     -3.3623076E-35
   5.030000     -2.9888766E-35
   5.040000     -3.1859542E-35
   5.050000     -4.0287176E-35
   5.060000     -5.1403312E-35
   5.070000     -6.2407592E-35
   5.080000     -7.7823529E-35
   5.090000     -9.7793485E-35
   5.100000     -1.1763841E-34
   5.110000     -1.3560815E-34
   5.120000     -1.5030054E-34
   5.130000     -1.6499415E-34
   5.140000     -1.8100644E-34
   5.150000     -1.9781961E-34
   5.160000     -2.1482752E-34
   5.170000     -2.2977000E-34
   5.180000     -2.4393344E-34
   5.190000     -2.5879824E-34
   5.200000     -2.7233194E-34
   5.210000     -2.8434832E-34
   5.220000     -2.9434491E-34
   5.230000     -3.0182762E-34
   5.240000     -3.0288864E-34
   5.250000     -2.9724002E-34
   5.260000     -2.8932201E-34
   5.270000     -2.8093837E-34
   5.280000     -2.6802949E-34
   5.290000     -2.4832233E-34
   5.300000     -2.2896137E-34
   5.310000     -2.0713811E-34
   5.320000     -1.7847229E-34
   5.330000     -1.4651822E-34
   5.340000     -1.1252428E-34
   5.350000     -7.7152045E-35
   5.360000     -3.9765671E-35
   5.370000     -1.0878888E-36
   5.380000      3.8099405E-35
   5.390000      7.4935153E-35
   5.400000      1.1067813E-34
   5.410000      1.4912498E-34
   5.420000      1.8638803E-34
   5.430000      2.2375822E-34
   5.440000      2.6629603E-34
   5.450000      3.1374436E-34
   5.460000      3.6492933E-34
   5.470000      4.1965456E-34
   5.480000      4.7951239E-34
   5.490000      5.4602062E-34
   5.500000      6.1824450E-34
   5.510000      6.9543045E-34
   5.520000      7.7795116E-34
   5.530000      8.6684856E-34
   5.540000      9.6099969E-34
   5.550000      1.0594970E-33
   5.560000      1.1645334E-33
   5.570000      1.2728623E-33
   5.580000      1.3795285E-33
   5.590000      1.4888426E-33
   5.600000      1.6024721E-33
   5.610000      1.7160083E-33
   5.620000      1.8286201E-33
   5.630000      1.9409276E-33
   5.640000      2.0492178E-33
   5.650000      2.1525274E-33
   5.660000      2.2518809E-33
   5.670000      2.3441629E-33
   5.680000      2.4278493E-33
   5.690000      2.5024080E-33
   5.700000      2.5666423E-33
   5.710000      2.6198186E-33
   5.720000      2.6607416E-33
   5.730000      2.6889003E-33
   5.740000      2.7039362E-33
   5.750000      2.7030133E-33
   5.760000      2.6859695E-33
   5.770000      2.6538598E-33
   5.780000      2.6053284E-33
   5.790000      2.5409168E-33
   5.800000      2.4628906E-33
   5.810000      2.3669121E-33
   5.820000      2.2489104E-33
   5.830000      2.1101630E-33
   5.840000      1.9507575E-33
   5.850000      1.7661834E-33
   5.860000      1.5529759E-33
   5.870000      1.3128735E-33
   5.880000      1.0449965E-33
   5.890000      7.4739138E-34
   5.900000      4.1859202E-34
   5.910000      5.7044146E-35
   5.920000     -3.3869576E-34
   5.930000     -7.7106451E-34
   5.940000     -1.2396473E-33
   5.950000     -1.7450045E-33
   5.960000     -2.2898562E-33
   5.970000     -2.8739121E-33
   5.980000     -3.4985878E-33
   5.990000     -4.1630316E-33
   6.000000     -4.8658105E-33
   6.010000     -5.6077909E-33
   6.020000     -6.3882248E-33
   6.030000     -7.2059920E-33
   6.040000     -8.0596727E-33
   6.050000     -8.9474810E-33
   6.060000     -9.8673148E-33
   6.070000     -1.0818311E-32
   6.080000     -1.1796906E-32
   6.090000     -1.2797755E-32
   6.100000     -1.3817459E-32
   6.110000     -1.4852403E-32
   6.120000     -1.5898632E-32
   6.130000     -1.6951692E-32
   6.140000     -1.8008923E-32
   6.150000     -1.9065745E-32
   6.160000     -2.0115131E-32
   6.170000     -2.1151331E-32
   6.180000     -2.2168251E-32
   6.190000     -2.3159368E-32
   6.200000     -2.4116330E-32
   6.210000     -2.5032261E-32
   6.220000     -2.5901398E-32
   6.230000     -2.6715848E-32
   6.240000     -2.7467324E-32
   6.250000     -2.8145440E-32
   6.260000     -2.8739964E-32
   6.270000     -2.9241586E-32
   6.280000     -2.9640240E-32
   6.290000     -2.9925362E-32
   6.300000     -3.0085602E-32
   6.310000     -3.0109380E-32
   6.320000     -2.9984801E-32
   6.330000     -2.9699785E-32
   6.340000     -2.9241671E-32
   6.350000     -2.8597603E-32
   6.360000     -2.7754815E-32
   6.370000     -2.6700246E-32
   6.380000     -2.5420800E-32
   6.390000     -2.3903462E-32
   6.400000     -2.2135315E-32
   6.410000     -2.0103604E-32
   6.420000     -1.7795846E-32
   6.430000     -1.5199919E-32
   6.440000     -1.2304112E-32
   6.450000     -9.0972485E-33
   6.460000     -5.5687546E-33
   6.470000     -1.7087574E-33
   6.480000      2.4918175E-33
   6.490000      7.0411656E-33
   6.500000      1.1946499E-32
   6.510000      1.7213938E-32
   6.520000      2.2848411E-32
   6.530000      2.8853543E-32
   6.540000      3.5231549E-32
   6.550000      4.1983128E-32
   6.560000      4.9107287E-32
   6.570000      5.6601299E-32
   6.580000      6.4460566E-32
   6.590000      7.2678406E-32
   6.600000      8.1246008E-32
   6.610000      9.0152259E-32
   6.620000      9.9383651E-32
   6.630000      1.0892409E-31
   6.640000      1.1875481E-31
   6.650000      1.2885422E-31
   6.660000      1.3919776E-31
   6.670000      1.4975777E-31
   6.680000      1.6050336E-31
   6.690000      1.7140028E-31
   6.700000      1.8241078E-31
   6.710000      1.9349356E-31
   6.720000      2.0460356E-31
   6.730000      2.1569191E-31
   6.740000      2.2670589E-31
   6.750000      2.3758876E-31
   6.760000      2.4827978E-31
   6.770000      2.5871420E-31
   6.780000      2.6882307E-31
   6.790000      2.7853343E-31
   6.800000      2.8776821E-31
   6.810000      2.9644627E-31
   6.820000      3.0448247E-31
   6.830000      3.1178775E-31
   6.840000      3.1826919E-31
   6.850000      3.2383012E-31
   6.860000      3.2837030E-31
   6.870000      3.3178605E-31
   6.880000      3.3397045E-31
   6.890000      3.3481347E-31
   6.900000      3.3420233E-31
   6.910000      3.3202162E-31
   6.920000      3.2815382E-31
   6.930000      3.2247936E-31
   6.940000      3.1487727E-31
   6.950000      3.0522538E-31
   6.960000      2.9340078E-31
   6.970000      2.7928039E-31
   6.980000      2.6274151E-31
   6.990000      2.4366221E-31
   7.000000      2.2192210E-31
   7.010000      1.9740293E-31
   7.020000      1.6998914E-31
   7.030000      1.3956882E-31
   7.040000      1.0603432E-31
   7.050000      6.9283167E-32
   7.060000      2.9218693E-32