  -2.600000      0.0000000E+00
  -2.590000      0.0000000E+00
  -2.580000      0.0000000E+00
  -2.570000      0.0000000E+00
  -2.560000      0.0000000E+00
  -2.550000      0.0000000E+00
  -2.540000      0.0000000E+00
  -2.530000      0.0000000E+00
  -2.520000      0.0000000E+00
  -2.510000      0.0000000E+00
  -2.500000      0.0000000E+00
  -2.490000      0.0000000E+00
  -2.480000      0.0000000E+00
  -2.470000      0.0000000E+00
  -2.460000      0.0000000E+00
  -2.450000      0.0000000E+00
  -2.440000      0.0000000E+00
  -2.430000      0.0000000E+00
  -2.420000      0.0000000E+00
  -2.410000      0.0000000E+00
  -2.400000      0.0000000E+00
  -2.390000      0.0000000E+00
  -2.380000      0.0000000E+00
  -2.370000      0.0000000E+00
  -2.360000      0.0000000E+00
  -2.350000      0.0000000E+00
  -2.340000      0.0000000E+00
  -2.330000      0.0000000E+00
  -2.320000      0.0000000E+00
  -2.310000      0.0000000E+00
  -2.300000      0.0000000E+00
  -2.290000      0.0000000E+00
  -2.280000      0.0000000E+00
  -2.270000      0.0000000E+00
  -2.260000      0.0000000E+00
  -2.250000      0.0000000E+00
  -2.240000      0.0000000E+00
  -2.230000      0.0000000E+00
  -2.220000      0.0000000E+00
  -2.210000      0.0000000E+00
  -2.200000      0.0000000E+00
  -2.190000      0.0000000E+00
  -2.180000      0.0000000E+00
  -2.170000      0.0000000E+00
  -2.160000      0.0000000E+00
  -2.150000      0.0000000E+00
  -2.140000      0.0000000E+00
  -2.130000      0.0000000E+00
  -2.120000      0.0000000E+00
  -2.110000      0.0000000E+00
  -2.100000      0.0000000E+00
  -2.090000      0.0000000E+00
  -2.080000      0.0000000E+00
  -2.070000      0.0000000E+00
  -2.060000      0.0000000E+00
  -2.050000      0.0000000E+00
  -2.040000      0.0000000E+00
  -2.030000      0.0000000E+00
  -2.020000      0.0000000E+00
  -2.010000      0.0000000E+00
  -2.000000      0.0000000E+00
  -1.990000      0.0000000E+00
  -1.980000      0.0000000E+00
  -1.970000      0.0000000E+00
  -1.960000      0.0000000E+00
  -1.950000      0.0000000E+00
  -1.940000      0.0000000E+00
  -1.930000      0.0000000E+00
  -1.920000      0.0000000E+00
  -1.910000      0.0000000E+00
  -1.900000      0.0000000E+00
  -1.890000      0.0000000E+00
  -1.880000      0.0000000E+00
  -1.870000      0.0000000E+00
  -1.860000      0.0000000E+00
  -1.850000      0.0000000E+00
  -1.840000      0.0000000E+00
  -1.830000      0.0000000E+00
  -1.820000      0.0000000E+00
  -1.810000      0.0000000E+00
  -1.800000      0.0000000E+00
  -1.790000      0.0000000E+00
  -1.780000      0.0000000E+00
  -1.770000      0.0000000E+00
  -1.760000      0.0000000E+00
  -1.750000      0.0000000E+00
  -1.740000      0.0000000E+00
  -1.730000      0.0000000E+00
  -1.720000      0.0000000E+00
  -1.710000      0.0000000E+00
  -1.700000      0.0000000E+00
  -1.690000      0.0000000E+00
  -1.680000      0.0000000E+00
  -1.670000      0.0000000E+00
  -1.660000      0.0000000E+00
  -1.650000      0.0000000E+00
  -1.640000      0.0000000E+00
  -1.630000      0.0000000E+00
  -1.620000      0.0000000E+00
  -1.610000      0.0000000E+00
  -1.600000      0.0000000E+00
  -1.590000      0.0000000E+00
  -1.580000      0.0000000E+00
  -1.570000      0.0000000E+00
  -1.560000      0.0000000E+00
  -1.550000      0.0000000E+00
  -1.540000      0.0000000E+00
  -1.530000      0.0000000E+00
  -1.520000      0.0000000E+00
  -1.510000      0.0000000E+00
  -1.500000      0.0000000E+00
  -1.490000      0.0000000E+00
  -1.480000      0.0000000E+00
  -1.470000      0.0000000E+00
  -1.460000      0.0000000E+00
  -1.450000      0.0000000E+00
  -1.440000      0.0000000E+00
  -1.430000      0.0000000E+00
  -1.420000      0.0000000E+00
  -1.410000      0.0000000E+00
  -1.400000      0.0000000E+00
  -1.390000      0.0000000E+00
  -1.380000      0.0000000E+00
  -1.370000      0.0000000E+00
  -1.360000      0.0000000E+00
  -1.350000      0.0000000E+00
  -1.340000      0.0000000E+00
  -1.330000      0.0000000E+00
  -1.320000      0.0000000E+00
  -1.310000      0.0000000E+00
  -1.300000      0.0000000E+00
  -1.290000      0.0000000E+00
  -1.280000      0.0000000E+00
  -1.270000      0.0000000E+00
  -1.260000      0.0000000E+00
  -1.250000      0.0000000E+00
  -1.240000      0.0000000E+00
  -1.230000      0.0000000E+00
  -1.220000      0.0000000E+00
  -1.210000      0.0000000E+00
  -1.200000      0.0000000E+00
  -1.190000      0.0000000E+00
  -1.180000      0.0000000E+00
  -1.170000      0.0000000E+00
  -1.160000      0.0000000E+00
  -1.150000      0.0000000E+00
  -1.140000      0.0000000E+00
  -1.130000      0.0000000E+00
  -1.120000      0.0000000E+00
  -1.110000      0.0000000E+00
  -1.100000      0.0000000E+00
  -1.090000      0.0000000E+00
  -1.080000      0.0000000E+00
  -1.070000      0.0000000E+00
  -1.060000      0.0000000E+00
  -1.050000      0.0000000E+00
  -1.040000      0.0000000E+00
  -1.030000      0.0000000E+00
  -1.020000      0.0000000E+00
  -1.010000      0.0000000E+00
  -1.000000      0.0000000E+00
 -0.9900000      0.0000000E+00
 -0.9800000      0.0000000E+00
 -0.9700000      0.0000000E+00
 -0.9600000      0.0000000E+00
 -0.9500000      0.0000000E+00
 -0.9400000      0.0000000E+00
 -0.9300000      0.0000000E+00
 -0.9200000      0.0000000E+00
 -0.9100000      0.0000000E+00
 -0.9000000      0.0000000E+00
 -0.8900000      0.0000000E+00
 -0.8800000      0.0000000E+00
 -0.8700000      0.0000000E+00
 -0.8600000      0.0000000E+00
 -0.8500000      0.0000000E+00
 -0.8400000      0.0000000E+00
 -0.8300000      0.0000000E+00
 -0.8200000      0.0000000E+00
 -0.8100000      0.0000000E+00
 -0.8000000      0.0000000E+00
 -0.7900000      0.0000000E+00
 -0.7800000      0.0000000E+00
 -0.7700000      0.0000000E+00
 -0.7600000      0.0000000E+00
 -0.7500000      0.0000000E+00
 -0.7400000      0.0000000E+00
 -0.7300000      0.0000000E+00
 -0.7200000      0.0000000E+00
 -0.7100000      0.0000000E+00
 -0.7000000      0.0000000E+00
 -0.6900000      0.0000000E+00
 -0.6800000      0.0000000E+00
 -0.6700000      0.0000000E+00
 -0.6600000      0.0000000E+00
 -0.6500000      0.0000000E+00
 -0.6400000      0.0000000E+00
 -0.6300000      0.0000000E+00
 -0.6200000      0.0000000E+00
 -0.6100000      0.0000000E+00
 -0.6000000      0.0000000E+00
 -0.5900000      0.0000000E+00
 -0.5800000      0.0000000E+00
 -0.5700000      0.0000000E+00
 -0.5600000      0.0000000E+00
 -0.5500000      0.0000000E+00
 -0.5400000      0.0000000E+00
 -0.5300000      0.0000000E+00
 -0.5200000      0.0000000E+00
 -0.5100000      0.0000000E+00
 -0.5000000      0.0000000E+00
 -0.4900000      0.0000000E+00
 -0.4800000      0.0000000E+00
 -0.4700000      0.0000000E+00
 -0.4600000      0.0000000E+00
 -0.4500000      0.0000000E+00
 -0.4400000      0.0000000E+00
 -0.4300000      0.0000000E+00
 -0.4200000      0.0000000E+00
 -0.4100000      0.0000000E+00
 -0.4000000      0.0000000E+00
 -0.3900000      0.0000000E+00
 -0.3800000      0.0000000E+00
 -0.3700000      0.0000000E+00
 -0.3600000      0.0000000E+00
 -0.3500000      0.0000000E+00
 -0.3400000      0.0000000E+00
 -0.3300000      0.0000000E+00
 -0.3200000      0.0000000E+00
 -0.3100000      0.0000000E+00
 -0.3000000      0.0000000E+00
 -0.2900000      0.0000000E+00
 -0.2800000      0.0000000E+00
 -0.2700000      0.0000000E+00
 -0.2600000      0.0000000E+00
 -0.2500000      0.0000000E+00
 -0.2400000      0.0000000E+00
 -0.2300000      0.0000000E+00
 -0.2200000      0.0000000E+00
 -0.2100000      0.0000000E+00
 -0.2000000      0.0000000E+00
 -0.1900000      0.0000000E+00
 -0.1800000      0.0000000E+00
 -0.1700000      0.0000000E+00
 -0.1600000      0.0000000E+00
 -0.1500000      0.0000000E+00
 -0.1400000      0.0000000E+00
 -0.1300000      0.0000000E+00
 -0.1200000      0.0000000E+00
 -0.1100000      0.0000000E+00
 -0.1000000      0.0000000E+00
 -9.0000004E-02  0.0000000E+00
 -7.9999998E-02  0.0000000E+00
 -7.0000000E-02  0.0000000E+00
 -5.9999999E-02  0.0000000E+00
 -5.0000001E-02  0.0000000E+00
 -3.9999999E-02  0.0000000E+00
 -2.9999999E-02  0.0000000E+00
 -2.0000000E-02  0.0000000E+00
 -9.9999998E-03  0.0000000E+00
 -3.4694470E-17  0.0000000E+00
  9.9999998E-03  0.0000000E+00
  2.0000000E-02  0.0000000E+00
  2.9999999E-02  0.0000000E+00
  3.9999999E-02  0.0000000E+00
  5.0000001E-02  0.0000000E+00
  5.9999999E-02  0.0000000E+00
  7.0000000E-02  0.0000000E+00
  7.9999998E-02  0.0000000E+00
  9.0000004E-02  0.0000000E+00
  0.1000000      0.0000000E+00
  0.1100000      0.0000000E+00
  0.1200000      0.0000000E+00
  0.1300000      0.0000000E+00
  0.1400000      0.0000000E+00
  0.1500000      0.0000000E+00
  0.1600000      0.0000000E+00
  0.1700000      0.0000000E+00
  0.1800000      0.0000000E+00
  0.1900000      0.0000000E+00
  0.2000000      0.0000000E+00
  0.2100000      0.0000000E+00
  0.2200000      0.0000000E+00
  0.2300000      0.0000000E+00
  0.2400000      0.0000000E+00
  0.2500000      0.0000000E+00
  0.2600000      0.0000000E+00
  0.2700000      0.0000000E+00
  0.2800000      0.0000000E+00
  0.2900000      0.0000000E+00
  0.3000000      0.0000000E+00
  0.3100000      0.0000000E+00
  0.3200000      0.0000000E+00
  0.3300000      0.0000000E+00
  0.3400000      0.0000000E+00
  0.3500000      0.0000000E+00
  0.3600000      0.0000000E+00
  0.3700000      0.0000000E+00
  0.3800000      0.0000000E+00
  0.3900000      0.0000000E+00
  0.4000000      0.0000000E+00
  0.4100000      0.0000000E+00
  0.4200000      0.0000000E+00
  0.4300000      0.0000000E+00
  0.4400000      0.0000000E+00
  0.4500000      0.0000000E+00
  0.4600000      0.0000000E+00
  0.4700000      0.0000000E+00
  0.4800000      0.0000000E+00
  0.4900000      0.0000000E+00
  0.5000000      0.0000000E+00
  0.5100000      0.0000000E+00
  0.5200000      0.0000000E+00
  0.5300000      0.0000000E+00
  0.5400000      0.0000000E+00
  0.5500000      0.0000000E+00
  0.5600000      0.0000000E+00
  0.5700000      0.0000000E+00
  0.5800000      0.0000000E+00
  0.5900000      0.0000000E+00
  0.6000000      0.0000000E+00
  0.6100000      0.0000000E+00
  0.6200000      0.0000000E+00
  0.6300000      0.0000000E+00
  0.6400000      0.0000000E+00
  0.6500000      0.0000000E+00
  0.6600000      0.0000000E+00
  0.6700000      0.0000000E+00
  0.6800000      0.0000000E+00
  0.6900000      0.0000000E+00
  0.7000000      0.0000000E+00
  0.7100000      0.0000000E+00
  0.7200000      0.0000000E+00
  0.7300000      0.0000000E+00
  0.7400000      0.0000000E+00
  0.7500000      0.0000000E+00
  0.7600000      0.0000000E+00
  0.7700000      0.0000000E+00
  0.7800000      0.0000000E+00
  0.7900000      0.0000000E+00
  0.8000000      0.0000000E+00
  0.8100000      0.0000000E+00
  0.8200000      0.0000000E+00
  0.8300000      0.0000000E+00
  0.8400000      0.0000000E+00
  0.8500000      0.0000000E+00
  0.8600000      0.0000000E+00
  0.8700000      0.0000000E+00
  0.8800000      0.0000000E+00
  0.8900000      0.0000000E+00
  0.9000000      0.0000000E+00
  0.9100000      0.0000000E+00
  0.9200000      0.0000000E+00
  0.9300000      0.0000000E+00
  0.9400000      0.0000000E+00
  0.9500000      0.0000000E+00
  0.9600000      0.0000000E+00
  0.9700000      0.0000000E+00
  0.9800000      0.0000000E+00
  0.9900000      0.0000000E+00
   1.000000      0.0000000E+00
   1.010000      0.0000000E+00
   1.020000      0.0000000E+00
   1.030000      0.0000000E+00
   1.040000      0.0000000E+00
   1.050000      0.0000000E+00
   1.060000      0.0000000E+00
   1.070000      0.0000000E+00
   1.080000      0.0000000E+00
   1.090000      0.0000000E+00
   1.100000      0.0000000E+00
   1.110000      0.0000000E+00
   1.120000      0.0000000E+00
   1.130000      0.0000000E+00
   1.140000      0.0000000E+00
   1.150000      0.0000000E+00
   1.160000      0.0000000E+00
   1.170000      0.0000000E+00
   1.180000      0.0000000E+00
   1.190000      0.0000000E+00
   1.200000      0.0000000E+00
   1.210000      0.0000000E+00
   1.220000      0.0000000E+00
   1.230000      0.0000000E+00
   1.240000      0.0000000E+00
   1.250000      0.0000000E+00
   1.260000      0.0000000E+00
   1.270000      0.0000000E+00
   1.280000      0.0000000E+00
   1.290000      0.0000000E+00
   1.300000      0.0000000E+00
   1.310000      0.0000000E+00
   1.320000      0.0000000E+00
   1.330000      0.0000000E+00
   1.340000      0.0000000E+00
   1.350000      0.0000000E+00
   1.360000      0.0000000E+00
   1.370000      0.0000000E+00
   1.380000      0.0000000E+00
   1.390000      0.0000000E+00
   1.400000      0.0000000E+00
   1.410000      0.0000000E+00
   1.420000      0.0000000E+00
   1.430000      0.0000000E+00
   1.440000      0.0000000E+00
   1.450000      0.0000000E+00
   1.460000      0.0000000E+00
   1.470000      0.0000000E+00
   1.480000      0.0000000E+00
   1.490000      0.0000000E+00
   1.500000      0.0000000E+00
   1.510000      0.0000000E+00
   1.520000      0.0000000E+00
   1.530000      0.0000000E+00
   1.540000      0.0000000E+00
   1.550000      0.0000000E+00
   1.560000      0.0000000E+00
   1.570000      0.0000000E+00
   1.580000      0.0000000E+00
   1.590000      0.0000000E+00
   1.600000      0.0000000E+00
   1.610000      0.0000000E+00
   1.620000      0.0000000E+00
   1.630000      0.0000000E+00
   1.640000      0.0000000E+00
   1.650000      0.0000000E+00
   1.660000      0.0000000E+00
   1.670000      0.0000000E+00
   1.680000      0.0000000E+00
   1.690000      0.0000000E+00
   1.700000      0.0000000E+00
   1.710000      0.0000000E+00
   1.720000      0.0000000E+00
   1.730000      0.0000000E+00
   1.740000      0.0000000E+00
   1.750000      0.0000000E+00
   1.760000      0.0000000E+00
   1.770000      0.0000000E+00
   1.780000      0.0000000E+00
   1.790000      0.0000000E+00
   1.800000      0.0000000E+00
   1.810000      0.0000000E+00
   1.820000      0.0000000E+00
   1.830000      0.0000000E+00
   1.840000      0.0000000E+00
   1.850000      0.0000000E+00
   1.860000      0.0000000E+00
   1.870000      0.0000000E+00
   1.880000      0.0000000E+00
   1.890000      0.0000000E+00
   1.900000      0.0000000E+00
   1.910000      0.0000000E+00
   1.920000      0.0000000E+00
   1.930000      0.0000000E+00
   1.940000      0.0000000E+00
   1.950000      0.0000000E+00
   1.960000      0.0000000E+00
   1.970000      0.0000000E+00
   1.980000      0.0000000E+00
   1.990000      0.0000000E+00
   2.000000      0.0000000E+00
   2.010000      0.0000000E+00
   2.020000      0.0000000E+00
   2.030000      0.0000000E+00
   2.040000      0.0000000E+00
   2.050000      0.0000000E+00
   2.060000      0.0000000E+00
   2.070000      0.0000000E+00
   2.080000      0.0000000E+00
   2.090000      0.0000000E+00
   2.100000      0.0000000E+00
   2.110000      0.0000000E+00
   2.120000      0.0000000E+00
   2.130000      0.0000000E+00
   2.140000      0.0000000E+00
   2.150000      0.0000000E+00
   2.160000      0.0000000E+00
   2.170000      0.0000000E+00
   2.180000      0.0000000E+00
   2.190000      0.0000000E+00
   2.200000      0.0000000E+00
   2.210000      0.0000000E+00
   2.220000      0.0000000E+00
   2.230000      0.0000000E+00
   2.240000      0.0000000E+00
   2.250000      0.0000000E+00
   2.260000      0.0000000E+00
   2.270000      0.0000000E+00
   2.280000      0.0000000E+00
   2.290000      0.0000000E+00
   2.300000      0.0000000E+00
   2.310000      0.0000000E+00
   2.320000      0.0000000E+00
   2.330000      0.0000000E+00
   2.340000      0.0000000E+00
   2.350000      0.0000000E+00
   2.360000      0.0000000E+00
   2.370000      0.0000000E+00
   2.380000      0.0000000E+00
   2.390000      0.0000000E+00
   2.400000      0.0000000E+00
   2.410000      0.0000000E+00
   2.420000      0.0000000E+00
   2.430000      0.0000000E+00
   2.440000      0.0000000E+00
   2.450000      0.0000000E+00
   2.460000      0.0000000E+00
   2.470000      0.0000000E+00
   2.480000      0.0000000E+00
   2.490000      0.0000000E+00
   2.500000      0.0000000E+00
   2.510000      0.0000000E+00
   2.520000      0.0000000E+00
   2.530000      0.0000000E+00
   2.540000      0.0000000E+00
   2.550000      0.0000000E+00
   2.560000      0.0000000E+00
   2.570000      0.0000000E+00
   2.580000      0.0000000E+00
   2.590000      0.0000000E+00
   2.600000      0.0000000E+00
   2.610000      0.0000000E+00
   2.620000      0.0000000E+00
   2.630000      0.0000000E+00
   2.640000      0.0000000E+00
   2.650000      0.0000000E+00
   2.660000      0.0000000E+00
   2.670000      0.0000000E+00
   2.680000      0.0000000E+00
   2.690000      0.0000000E+00
   2.700000      0.0000000E+00
   2.710000      0.0000000E+00
   2.720000      0.0000000E+00
   2.730000      0.0000000E+00
   2.740000      0.0000000E+00
   2.750000      0.0000000E+00
   2.760000      0.0000000E+00
   2.770000      0.0000000E+00
   2.780000      0.0000000E+00
   2.790000      0.0000000E+00
   2.800000      0.0000000E+00
   2.810000      0.0000000E+00
   2.820000      0.0000000E+00
   2.830000      0.0000000E+00
   2.840000      0.0000000E+00
   2.850000      0.0000000E+00
   2.860000      0.0000000E+00
   2.870000      0.0000000E+00
   2.880000      0.0000000E+00
   2.890000      0.0000000E+00
   2.900000      0.0000000E+00
   2.910000      0.0000000E+00
   2.920000      0.0000000E+00
   2.930000      0.0000000E+00
   2.940000      0.0000000E+00
   2.950000      0.0000000E+00
   2.960000      0.0000000E+00
   2.970000      0.0000000E+00
   2.980000      0.0000000E+00
   2.990000      0.0000000E+00
   3.000000      0.0000000E+00
   3.010000      0.0000000E+00
   3.020000      0.0000000E+00
   3.030000      0.0000000E+00
   3.040000      0.0000000E+00
   3.050000      0.0000000E+00
   3.060000     -1.2901728E-38
   3.070000     -1.3406679E-38
   3.080000     -1.3331511E-38
   3.090000     -1.3547520E-38
   3.100000     -1.4401764E-38
   3.110000     -1.6294973E-38
   3.120000     -1.8906458E-38
   3.130000     -2.1482470E-38
   3.140000     -2.3844231E-38
   3.150000     -2.6045354E-38
   3.160000     -2.7770543E-38
   3.170000     -2.8656601E-38
   3.180000     -2.8426738E-38
   3.190000     -2.7152974E-38
   3.200000     -2.5288866E-38
   3.210000     -2.3548221E-38
   3.220000     -2.2176630E-38
   3.230000     -2.0740805E-38
   3.240000     -1.9096589E-38
   3.250000     -1.3789434E-38
   3.260000      0.0000000E+00
   3.270000      0.0000000E+00
   3.280000      2.3094602E-38
   3.290000      3.9728476E-38
   3.300000      5.8517467E-38
   3.310000      7.9863514E-38
   3.320000      1.0366131E-37
   3.330000      1.3076315E-37
   3.340000      1.5845476E-37
   3.350000      1.8446193E-37
   3.360000      2.0949358E-37
   3.370000      2.3073077E-37
   3.380000      2.4698645E-37
   3.390000      2.5999275E-37
   3.400000      2.7116004E-37
   3.410000      2.8121148E-37
   3.420000      2.9003728E-37
   3.430000      2.9593408E-37
   3.440000      2.9796502E-37
   3.450000      2.9825965E-37
   3.460000      2.9705409E-37
   3.470000      2.9238039E-37
   3.480000      2.8496113E-37
   3.490000      2.7463907E-37
   3.500000      2.6077539E-37
   3.510000      2.4508354E-37
   3.520000      2.3021816E-37
   3.530000      2.1815213E-37
   3.540000      2.0448048E-37
   3.550000      1.8885295E-37
   3.560000      1.7011017E-37
   3.570000      1.4687185E-37
   3.580000      1.2210157E-37
   3.590000      9.3645615E-38
   3.600000      5.9620278E-38
   3.610000      1.9023692E-38
   3.620000     -2.6219043E-38
   3.630000     -7.6001989E-38
   3.640000     -1.3250659E-37
   3.650000     -1.9893898E-37
   3.660000     -2.7743479E-37
   3.670000     -3.6528165E-37
   3.680000     -4.6702847E-37
   3.690000     -5.8019380E-37
   3.700000     -6.9915942E-37
   3.710000     -8.2248920E-37
   3.720000     -9.5112266E-37
   3.730000     -1.0801282E-36
   3.740000     -1.2034393E-36
   3.750000     -1.3225195E-36
   3.760000     -1.4383570E-36
   3.770000     -1.5507528E-36
   3.780000     -1.6577568E-36
   3.790000     -1.7611480E-36
   3.800000     -1.8516377E-36
   3.810000     -1.9298785E-36
   3.820000     -2.0015451E-36
   3.830000     -2.0548938E-36
   3.840000     -2.0944154E-36
   3.850000     -2.1157763E-36
   3.860000     -2.1047480E-36
   3.870000     -2.0679668E-36
   3.880000     -2.0096220E-36
   3.890000     -1.9380303E-36
   3.900000     -1.8472470E-36
   3.910000     -1.7113032E-36
   3.920000     -1.5412441E-36
   3.930000     -1.3430557E-36
   3.940000     -1.1195903E-36
   3.950000     -8.7237461E-37
   3.960000     -5.9550768E-37
   3.970000     -2.4056710E-37
   3.980000      2.3030347E-37
   3.990000      7.4593960E-37
   4.000000      1.2743799E-36
   4.010000      1.8198567E-36
   4.020000      2.3621709E-36
   4.030000      2.9236878E-36
   4.040000      3.5192327E-36
   4.050000      4.1091014E-36
   4.060000      4.6776313E-36
   4.070000      5.2181819E-36
   4.080000      5.7833066E-36
   4.090000      6.4069278E-36
   4.100000      7.0584196E-36
   4.110000      7.6625142E-36
   4.120000      8.2060332E-36
   4.130000      8.7646549E-36
   4.140000      9.3347962E-36
   4.150000      9.9097948E-36
   4.160000      1.0402075E-35
   4.170000      1.0556699E-35
   4.180000      1.0413798E-35
   4.190000      1.0227353E-35
   4.200000      9.9364163E-36
   4.210000      9.4691422E-36
   4.220000      8.8391974E-36
   4.230000      8.0651404E-36
   4.240000      7.3564487E-36
   4.250000      6.7220534E-36
   4.260000      5.9727726E-36
   4.270000      5.0479608E-36
   4.280000      4.0899283E-36
   4.290000      3.2003738E-36
   4.300000      2.4160289E-36
   4.310000      1.7242966E-36
   4.320000      1.0544259E-36
   4.330000      3.6555039E-37
   4.340000     -4.5176078E-37
   4.350000     -1.4567262E-36
   4.360000     -2.6961069E-36
   4.370000     -4.0948615E-36
   4.380000     -5.6239114E-36
   4.390000     -7.3432538E-36
   4.400000     -9.1726865E-36
   4.410000     -1.1080470E-35
   4.420000     -1.3197916E-35
   4.430000     -1.5488465E-35
   4.440000     -1.7992673E-35
   4.450000     -2.0862495E-35
   4.460000     -2.3990722E-35
   4.470000     -2.7306191E-35
   4.480000     -3.0635900E-35
   4.490000     -3.3832349E-35
   4.500000     -3.6874977E-35
   4.510000     -3.9734384E-35
   4.520000     -4.2588680E-35
   4.530000     -4.5616927E-35
   4.540000     -4.8491989E-35
   4.550000     -5.1008545E-35
   4.560000     -5.3302671E-35
   4.570000     -5.5388301E-35
   4.580000     -5.7421659E-35
   4.590000     -5.9007658E-35
   4.600000     -5.9679952E-35
   4.610000     -5.9658416E-35
   4.620000     -5.9109263E-35
   4.630000     -5.7168245E-35
   4.640000     -5.3819469E-35
   4.650000     -4.9649351E-35
   4.660000     -4.4749707E-35
   4.670000     -3.9274934E-35
   4.680000     -3.3118385E-35
   4.690000     -2.6720686E-35
   4.700000     -2.0439768E-35
   4.710000     -1.4268901E-35
   4.720000     -7.5110774E-36
   4.730000      2.2710198E-37
   4.740000      8.0832319E-36
   4.750000      1.5687044E-35
   4.760000      2.3422173E-35
   4.770000      3.1492260E-35
   4.780000      3.9959318E-35
   4.790000      4.9092467E-35
   4.800000      5.8625508E-35
   4.810000      6.7969735E-35
   4.820000      7.6616621E-35
   4.830000      8.4886683E-35
   4.840000      9.3677814E-35
   4.850000      1.0306049E-34
   4.860000      1.1303944E-34
   4.870000      1.2387374E-34
   4.880000      1.3533293E-34
   4.890000      1.4773545E-34
   4.900000      1.6144336E-34
   4.910000      1.7576272E-34
   4.920000      1.9041229E-34
   4.930000      2.0536019E-34
   4.940000      2.2133422E-34
   4.950000      2.3786906E-34
   4.960000      2.5257367E-34
   4.970000      2.6588426E-34
   4.980000      2.7964797E-34
   4.990000      2.9566167E-34
   5.000000      3.1039815E-34
   5.010000      3.2072757E-34
   5.020000      3.3016989E-34
   5.030000      3.3332341E-34
   5.040000      3.2822500E-34
   5.050000      3.2001709E-34
   5.060000      3.0665748E-34
   5.070000      2.8745073E-34
   5.080000      2.6866034E-34
   5.090000      2.5141512E-34
   5.100000      2.3012621E-34
   5.110000      2.0743350E-34
   5.120000      1.8750735E-34
   5.130000      1.6889548E-34
   5.140000      1.4916579E-34
   5.150000      1.2620945E-34
   5.160000      1.0005520E-34
   5.170000      7.2058630E-35
   5.180000      4.1447916E-35
   5.190000      6.2204831E-36
   5.200000     -3.2566910E-35
   5.210000     -7.5164099E-35
   5.220000     -1.1893633E-34
   5.230000     -1.6084194E-34
   5.240000     -2.0087449E-34
   5.250000     -2.4016553E-34
   5.260000     -2.8234070E-34
   5.270000     -3.2931314E-34
   5.280000     -3.8386861E-34
   5.290000     -4.4552108E-34
   5.300000     -5.1653853E-34
   5.310000     -5.9301307E-34
   5.320000     -6.6756811E-34
   5.330000     -7.4169028E-34
   5.340000     -8.1734189E-34
   5.350000     -9.0014334E-34
   5.360000     -9.8960682E-34
   5.370000     -1.0809621E-33
   5.380000     -1.1717762E-33
   5.390000     -1.2619405E-33
   5.400000     -1.3519950E-33
   5.410000     -1.4414729E-33
   5.420000     -1.5301073E-33
   5.430000     -1.6160797E-33
   5.440000     -1.6962380E-33
   5.450000     -1.7698368E-33
   5.460000     -1.8375276E-33
   5.470000     -1.8980131E-33
   5.480000     -1.9505946E-33
   5.490000     -1.9944367E-33
   5.500000     -2.0296264E-33
   5.510000     -2.0554867E-33
   5.520000     -2.0706504E-33
   5.530000     -2.0747951E-33
   5.540000     -2.0678758E-33
   5.550000     -2.0511982E-33
   5.560000     -2.0230445E-33
   5.570000     -1.9815922E-33
   5.580000     -1.9301678E-33
   5.590000     -1.8689528E-33
   5.600000     -1.7944946E-33
   5.610000     -1.7077835E-33
   5.620000     -1.6089087E-33
   5.630000     -1.4962433E-33
   5.640000     -1.3680131E-33
   5.650000     -1.2251633E-33
   5.660000     -1.0681691E-33
   5.670000     -8.9338967E-34
   5.680000     -7.0039411E-34
   5.690000     -4.8855134E-34
   5.700000     -2.5634999E-34
   5.710000     -2.5234299E-36
   5.720000      2.7431563E-34
   5.730000      5.7581797E-34
   5.740000      9.0180841E-34
   5.750000      1.2506693E-33
   5.760000      1.6201626E-33
   5.770000      2.0136301E-33
   5.780000      2.4336653E-33
   5.790000      2.8764264E-33
   5.800000      3.3401786E-33
   5.810000      3.8245601E-33
   5.820000      4.3286026E-33
   5.830000      4.8507105E-33
   5.840000      5.3889995E-33
   5.850000      5.9421236E-33
   5.860000      6.5076609E-33
   5.870000      7.0829765E-33
   5.880000      7.6639543E-33
   5.890000      8.2494563E-33
   5.900000      8.8397293E-33
   5.910000      9.4314349E-33
   5.920000      1.0021806E-32
   5.930000      1.0607132E-32
   5.940000      1.1183300E-32
   5.950000      1.1748785E-32
   5.960000      1.2301631E-32
   5.970000      1.2837900E-32
   5.980000      1.3354195E-32
   5.990000      1.3847282E-32
   6.000000      1.4313692E-32
   6.010000      1.4749678E-32
   6.020000      1.5151119E-32
   6.030000      1.5515801E-32
   6.040000      1.5836849E-32
   6.050000      1.6109747E-32
   6.060000      1.6332681E-32
   6.070000      1.6498729E-32
   6.080000      1.6602763E-32
   6.090000      1.6638691E-32
   6.100000      1.6601086E-32
   6.110000      1.6484517E-32
   6.120000      1.6282413E-32
   6.130000      1.5988666E-32
   6.140000      1.5596879E-32
   6.150000      1.5100572E-32
   6.160000      1.4493422E-32
   6.170000      1.3769500E-32
   6.180000      1.2922976E-32
   6.190000      1.1947916E-32
   6.200000      1.0838771E-32
   6.210000      9.5903199E-33
   6.220000      8.1978190E-33
   6.230000      6.6571191E-33
   6.240000      4.9638254E-33
   6.250000      3.1140175E-33
   6.260000      1.1048905E-33
   6.270000     -1.0661830E-33
   6.280000     -3.4012433E-33
   6.290000     -5.9017655E-33
   6.300000     -8.5687727E-33
   6.310000     -1.1402627E-32
   6.320000     -1.4403081E-32
   6.330000     -1.7569221E-32
   6.340000     -2.0899492E-32
   6.350000     -2.4391614E-32
   6.360000     -2.8042637E-32
   6.370000     -3.1848879E-32
   6.380000     -3.5805687E-32
   6.390000     -3.9907610E-32
   6.400000     -4.4148347E-32
   6.410000     -4.8520625E-32
   6.420000     -5.3016124E-32
   6.430000     -5.7625401E-32
   6.440000     -6.2337864E-32
   6.450000     -6.7143285E-32
   6.460000     -7.2026794E-32
   6.470000     -7.6972128E-32
   6.480000     -8.1964823E-32
   6.490000     -8.6987264E-32
   6.500000     -9.2020202E-32
   6.510000     -9.7042730E-32
   6.520000     -1.0203236E-31
   6.530000     -1.0696463E-31
   6.540000     -1.1181335E-31
   6.550000     -1.1655082E-31
   6.560000     -1.2114746E-31
   6.570000     -1.2557194E-31
   6.580000     -1.2979128E-31
   6.590000     -1.3377083E-31
   6.600000     -1.3747430E-31
   6.610000     -1.4086392E-31
   6.620000     -1.4390043E-31
   6.630000     -1.4654316E-31
   6.640000     -1.4875011E-31
   6.650000     -1.5047808E-31
   6.660000     -1.5168257E-31
   6.670000     -1.5231830E-31
   6.680000     -1.5233875E-31
   6.690000     -1.5169690E-31
   6.700000     -1.5034525E-31
   6.710000     -1.4823522E-31
   6.720000     -1.4531793E-31
   6.730000     -1.4154432E-31
   6.740000     -1.3686529E-31
   6.750000     -1.3123177E-31
   6.760000     -1.2459488E-31
   6.770000     -1.1690633E-31
   6.780000     -1.0811850E-31
   6.790000     -9.8184817E-32
   6.800000     -8.7059639E-32
   6.810000     -7.4698722E-32
   6.820000     -6.1059785E-32
   6.830000     -4.6102474E-32
   6.840000     -2.9788761E-32
   6.850000     -1.2083318E-32
   6.860000      7.0461005E-33
   6.870000      2.7628290E-32
   6.880000      4.9688123E-32
   6.890000      7.3246123E-32
   6.900000      9.8318130E-32
   6.910000      1.2491467E-31
   6.920000      1.5304057E-31
   6.930000      1.8269444E-31
   6.940000      2.1386815E-31
   6.950000      2.4654640E-31
   6.960000      2.8070624E-31
   6.970000      3.1631643E-31
   6.980000      3.5333710E-31
   6.990000      3.9171917E-31
   7.000000      4.3140403E-31
   7.010000      4.7232285E-31
   7.020000      5.1439633E-31
   7.030000      5.5753420E-31
   7.040000      6.0163479E-31
   7.050000      6.4658462E-31
   7.060000      6.9225807E-31