  -2.600000      0.0000000E+00
  -2.590000      0.0000000E+00
  -2.580000      0.0000000E+00
  -2.570000      0.0000000E+00
  -2.560000      0.0000000E+00
  -2.550000      0.0000000E+00
  -2.540000      0.0000000E+00
  -2.530000      0.0000000E+00
  -2.520000      0.0000000E+00
  -2.510000      0.0000000E+00
  -2.500000      0.0000000E+00
  -2.490000      0.0000000E+00
  -2.480000      0.0000000E+00
  -2.470000      0.0000000E+00
  -2.460000      0.0000000E+00
  -2.450000      0.0000000E+00
  -2.440000      0.0000000E+00
  -2.430000      0.0000000E+00
  -2.420000      0.0000000E+00
  -2.410000      0.0000000E+00
  -2.400000      0.0000000E+00
  -2.390000      0.0000000E+00
  -2.380000      0.0000000E+00
  -2.370000      0.0000000E+00
  -2.360000      0.0000000E+00
  -2.350000      0.0000000E+00
  -2.340000      0.0000000E+00
  -2.330000      0.0000000E+00
  -2.320000      0.0000000E+00
  -2.310000      0.0000000E+00
  -2.300000      0.0000000E+00
  -2.290000      0.0000000E+00
  -2.280000      0.0000000E+00
  -2.270000      0.0000000E+00
  -2.260000      0.0000000E+00
  -2.250000      0.0000000E+00
  -2.240000      0.0000000E+00
  -2.230000      0.0000000E+00
  -2.220000      0.0000000E+00
  -2.210000      0.0000000E+00
  -2.200000      0.0000000E+00
  -2.190000      0.0000000E+00
  -2.180000      0.0000000E+00
  -2.170000      0.0000000E+00
  -2.160000      0.0000000E+00
  -2.150000      0.0000000E+00
  -2.140000      0.0000000E+00
  -2.130000      0.0000000E+00
  -2.120000      0.0000000E+00
  -2.110000      0.0000000E+00
  -2.100000      0.0000000E+00
  -2.090000      0.0000000E+00
  -2.080000      0.0000000E+00
  -2.070000      0.0000000E+00
  -2.060000      0.0000000E+00
  -2.050000      0.0000000E+00
  -2.040000      0.0000000E+00
  -2.030000      0.0000000E+00
  -2.020000      0.0000000E+00
  -2.010000      0.0000000E+00
  -2.000000      0.0000000E+00
  -1.990000      0.0000000E+00
  -1.980000      0.0000000E+00
  -1.970000      0.0000000E+00
  -1.960000      0.0000000E+00
  -1.950000      0.0000000E+00
  -1.940000      0.0000000E+00
  -1.930000      0.0000000E+00
  -1.920000      0.0000000E+00
  -1.910000      0.0000000E+00
  -1.900000      0.0000000E+00
  -1.890000      0.0000000E+00
  -1.880000      0.0000000E+00
  -1.870000      0.0000000E+00
  -1.860000      0.0000000E+00
  -1.850000      0.0000000E+00
  -1.840000      0.0000000E+00
  -1.830000      0.0000000E+00
  -1.820000      0.0000000E+00
  -1.810000      0.0000000E+00
  -1.800000      0.0000000E+00
  -1.790000      0.0000000E+00
  -1.780000      0.0000000E+00
  -1.770000      0.0000000E+00
  -1.760000      0.0000000E+00
  -1.750000      0.0000000E+00
  -1.740000      0.0000000E+00
  -1.730000      0.0000000E+00
  -1.720000      0.0000000E+00
  -1.710000      0.0000000E+00
  -1.700000      0.0000000E+00
  -1.690000      0.0000000E+00
  -1.680000      0.0000000E+00
  -1.670000      0.0000000E+00
  -1.660000      0.0000000E+00
  -1.650000      0.0000000E+00
  -1.640000      0.0000000E+00
  -1.630000      0.0000000E+00
  -1.620000      0.0000000E+00
  -1.610000      0.0000000E+00
  -1.600000      0.0000000E+00
  -1.590000      0.0000000E+00
  -1.580000      0.0000000E+00
  -1.570000      0.0000000E+00
  -1.560000      0.0000000E+00
  -1.550000      0.0000000E+00
  -1.540000      0.0000000E+00
  -1.530000      0.0000000E+00
  -1.520000      0.0000000E+00
  -1.510000      0.0000000E+00
  -1.500000      0.0000000E+00
  -1.490000      0.0000000E+00
  -1.480000      0.0000000E+00
  -1.470000      0.0000000E+00
  -1.460000      0.0000000E+00
  -1.450000      0.0000000E+00
  -1.440000      0.0000000E+00
  -1.430000      0.0000000E+00
  -1.420000      0.0000000E+00
  -1.410000      0.0000000E+00
  -1.400000      0.0000000E+00
  -1.390000      0.0000000E+00
  -1.380000      0.0000000E+00
  -1.370000      0.0000000E+00
  -1.360000      0.0000000E+00
  -1.350000      0.0000000E+00
  -1.340000      0.0000000E+00
  -1.330000      0.0000000E+00
  -1.320000      0.0000000E+00
  -1.310000      0.0000000E+00
  -1.300000      0.0000000E+00
  -1.290000      0.0000000E+00
  -1.280000      0.0000000E+00
  -1.270000      0.0000000E+00
  -1.260000      0.0000000E+00
  -1.250000      0.0000000E+00
  -1.240000      0.0000000E+00
  -1.230000      0.0000000E+00
  -1.220000      0.0000000E+00
  -1.210000      0.0000000E+00
  -1.200000      0.0000000E+00
  -1.190000      0.0000000E+00
  -1.180000      0.0000000E+00
  -1.170000      0.0000000E+00
  -1.160000      0.0000000E+00
  -1.150000      0.0000000E+00
  -1.140000      0.0000000E+00
  -1.130000      0.0000000E+00
  -1.120000      0.0000000E+00
  -1.110000      0.0000000E+00
  -1.100000      0.0000000E+00
  -1.090000      0.0000000E+00
  -1.080000      0.0000000E+00
  -1.070000      0.0000000E+00
  -1.060000      0.0000000E+00
  -1.050000      0.0000000E+00
  -1.040000      0.0000000E+00
  -1.030000      0.0000000E+00
  -1.020000      0.0000000E+00
  -1.010000      0.0000000E+00
  -1.000000      0.0000000E+00
 -0.9900000      0.0000000E+00
 -0.9800000      0.0000000E+00
 -0.9700000      0.0000000E+00
 -0.9600000      0.0000000E+00
 -0.9500000      0.0000000E+00
 -0.9400000      0.0000000E+00
 -0.9300000      0.0000000E+00
 -0.9200000      0.0000000E+00
 -0.9100000      0.0000000E+00
 -0.9000000      0.0000000E+00
 -0.8900000      0.0000000E+00
 -0.8800000      0.0000000E+00
 -0.8700000      0.0000000E+00
 -0.8600000      0.0000000E+00
 -0.8500000      0.0000000E+00
 -0.8400000      0.0000000E+00
 -0.8300000      0.0000000E+00
 -0.8200000      0.0000000E+00
 -0.8100000      0.0000000E+00
 -0.8000000      0.0000000E+00
 -0.7900000      0.0000000E+00
 -0.7800000      0.0000000E+00
 -0.7700000      0.0000000E+00
 -0.7600000      0.0000000E+00
 -0.7500000      0.0000000E+00
 -0.7400000      0.0000000E+00
 -0.7300000      0.0000000E+00
 -0.7200000      0.0000000E+00
 -0.7100000      0.0000000E+00
 -0.7000000      0.0000000E+00
 -0.6900000      0.0000000E+00
 -0.6800000      0.0000000E+00
 -0.6700000      0.0000000E+00
 -0.6600000      0.0000000E+00
 -0.6500000      0.0000000E+00
 -0.6400000      0.0000000E+00
 -0.6300000      0.0000000E+00
 -0.6200000      0.0000000E+00
 -0.6100000      0.0000000E+00
 -0.6000000      0.0000000E+00
 -0.5900000      0.0000000E+00
 -0.5800000      0.0000000E+00
 -0.5700000      0.0000000E+00
 -0.5600000      0.0000000E+00
 -0.5500000      0.0000000E+00
 -0.5400000      0.0000000E+00
 -0.5300000      0.0000000E+00
 -0.5200000      0.0000000E+00
 -0.5100000      0.0000000E+00
 -0.5000000      0.0000000E+00
 -0.4900000      0.0000000E+00
 -0.4800000      0.0000000E+00
 -0.4700000      0.0000000E+00
 -0.4600000      0.0000000E+00
 -0.4500000      0.0000000E+00
 -0.4400000      0.0000000E+00
 -0.4300000      0.0000000E+00
 -0.4200000      0.0000000E+00
 -0.4100000      0.0000000E+00
 -0.4000000      0.0000000E+00
 -0.3900000      0.0000000E+00
 -0.3800000      0.0000000E+00
 -0.3700000      0.0000000E+00
 -0.3600000      0.0000000E+00
 -0.3500000      0.0000000E+00
 -0.3400000      0.0000000E+00
 -0.3300000      0.0000000E+00
 -0.3200000      0.0000000E+00
 -0.3100000      0.0000000E+00
 -0.3000000      0.0000000E+00
 -0.2900000      0.0000000E+00
 -0.2800000      0.0000000E+00
 -0.2700000      0.0000000E+00
 -0.2600000      0.0000000E+00
 -0.2500000      0.0000000E+00
 -0.2400000      0.0000000E+00
 -0.2300000      0.0000000E+00
 -0.2200000      0.0000000E+00
 -0.2100000      0.0000000E+00
 -0.2000000      0.0000000E+00
 -0.1900000      0.0000000E+00
 -0.1800000      0.0000000E+00
 -0.1700000      0.0000000E+00
 -0.1600000      0.0000000E+00
 -0.1500000      0.0000000E+00
 -0.1400000      0.0000000E+00
 -0.1300000      0.0000000E+00
 -0.1200000      0.0000000E+00
 -0.1100000      0.0000000E+00
 -0.1000000      0.0000000E+00
 -9.0000004E-02  0.0000000E+00
 -7.9999998E-02  0.0000000E+00
 -7.0000000E-02  0.0000000E+00
 -5.9999999E-02  0.0000000E+00
 -5.0000001E-02  0.0000000E+00
 -3.9999999E-02  0.0000000E+00
 -2.9999999E-02  0.0000000E+00
 -2.0000000E-02  0.0000000E+00
 -9.9999998E-03  0.0000000E+00
 -3.4694470E-17  0.0000000E+00
  9.9999998E-03  0.0000000E+00
  2.0000000E-02  0.0000000E+00
  2.9999999E-02  0.0000000E+00
  3.9999999E-02  0.0000000E+00
  5.0000001E-02  0.0000000E+00
  5.9999999E-02  0.0000000E+00
  7.0000000E-02  0.0000000E+00
  7.9999998E-02  0.0000000E+00
  9.0000004E-02  0.0000000E+00
  0.1000000      0.0000000E+00
  0.1100000      0.0000000E+00
  0.1200000      0.0000000E+00
  0.1300000      0.0000000E+00
  0.1400000      0.0000000E+00
  0.1500000      0.0000000E+00
  0.1600000      0.0000000E+00
  0.1700000      0.0000000E+00
  0.1800000      0.0000000E+00
  0.1900000      0.0000000E+00
  0.2000000      0.0000000E+00
  0.2100000      0.0000000E+00
  0.2200000      0.0000000E+00
  0.2300000      0.0000000E+00
  0.2400000      0.0000000E+00
  0.2500000      0.0000000E+00
  0.2600000      0.0000000E+00
  0.2700000      0.0000000E+00
  0.2800000      0.0000000E+00
  0.2900000      0.0000000E+00
  0.3000000      0.0000000E+00
  0.3100000      0.0000000E+00
  0.3200000      0.0000000E+00
  0.3300000      0.0000000E+00
  0.3400000      0.0000000E+00
  0.3500000      0.0000000E+00
  0.3600000      0.0000000E+00
  0.3700000      0.0000000E+00
  0.3800000      0.0000000E+00
  0.3900000      0.0000000E+00
  0.4000000      0.0000000E+00
  0.4100000      0.0000000E+00
  0.4200000      0.0000000E+00
  0.4300000      0.0000000E+00
  0.4400000      0.0000000E+00
  0.4500000      0.0000000E+00
  0.4600000      0.0000000E+00
  0.4700000      0.0000000E+00
  0.4800000      0.0000000E+00
  0.4900000      0.0000000E+00
  0.5000000      0.0000000E+00
  0.5100000      0.0000000E+00
  0.5200000      0.0000000E+00
  0.5300000      0.0000000E+00
  0.5400000      0.0000000E+00
  0.5500000      0.0000000E+00
  0.5600000      0.0000000E+00
  0.5700000      0.0000000E+00
  0.5800000      0.0000000E+00
  0.5900000      0.0000000E+00
  0.6000000      0.0000000E+00
  0.6100000      0.0000000E+00
  0.6200000      0.0000000E+00
  0.6300000      0.0000000E+00
  0.6400000      0.0000000E+00
  0.6500000      0.0000000E+00
  0.6600000      0.0000000E+00
  0.6700000      0.0000000E+00
  0.6800000      0.0000000E+00
  0.6900000      0.0000000E+00
  0.7000000      0.0000000E+00
  0.7100000      0.0000000E+00
  0.7200000      0.0000000E+00
  0.7300000      0.0000000E+00
  0.7400000      0.0000000E+00
  0.7500000      0.0000000E+00
  0.7600000      0.0000000E+00
  0.7700000      0.0000000E+00
  0.7800000      0.0000000E+00
  0.7900000      0.0000000E+00
  0.8000000      0.0000000E+00
  0.8100000      0.0000000E+00
  0.8200000      0.0000000E+00
  0.8300000      0.0000000E+00
  0.8400000      0.0000000E+00
  0.8500000      0.0000000E+00
  0.8600000      0.0000000E+00
  0.8700000      0.0000000E+00
  0.8800000      0.0000000E+00
  0.8900000      0.0000000E+00
  0.9000000      0.0000000E+00
  0.9100000      0.0000000E+00
  0.9200000      0.0000000E+00
  0.9300000      0.0000000E+00
  0.9400000      0.0000000E+00
  0.9500000      0.0000000E+00
  0.9600000      0.0000000E+00
  0.9700000      0.0000000E+00
  0.9800000      0.0000000E+00
  0.9900000      0.0000000E+00
   1.000000      0.0000000E+00
   1.010000      0.0000000E+00
   1.020000      0.0000000E+00
   1.030000      0.0000000E+00
   1.040000      0.0000000E+00
   1.050000      0.0000000E+00
   1.060000      0.0000000E+00
   1.070000      0.0000000E+00
   1.080000      0.0000000E+00
   1.090000      0.0000000E+00
   1.100000      0.0000000E+00
   1.110000      0.0000000E+00
   1.120000      0.0000000E+00
   1.130000      0.0000000E+00
   1.140000      0.0000000E+00
   1.150000      0.0000000E+00
   1.160000      0.0000000E+00
   1.170000      0.0000000E+00
   1.180000      0.0000000E+00
   1.190000      0.0000000E+00
   1.200000      0.0000000E+00
   1.210000      0.0000000E+00
   1.220000      0.0000000E+00
   1.230000      0.0000000E+00
   1.240000      0.0000000E+00
   1.250000      0.0000000E+00
   1.260000      0.0000000E+00
   1.270000      0.0000000E+00
   1.280000      0.0000000E+00
   1.290000      0.0000000E+00
   1.300000      0.0000000E+00
   1.310000      0.0000000E+00
   1.320000      0.0000000E+00
   1.330000      0.0000000E+00
   1.340000      0.0000000E+00
   1.350000      0.0000000E+00
   1.360000      0.0000000E+00
   1.370000      0.0000000E+00
   1.380000      0.0000000E+00
   1.390000      0.0000000E+00
   1.400000      0.0000000E+00
   1.410000      0.0000000E+00
   1.420000      0.0000000E+00
   1.430000      0.0000000E+00
   1.440000      0.0000000E+00
   1.450000      0.0000000E+00
   1.460000      0.0000000E+00
   1.470000      0.0000000E+00
   1.480000      0.0000000E+00
   1.490000      0.0000000E+00
   1.500000      0.0000000E+00
   1.510000      0.0000000E+00
   1.520000      0.0000000E+00
   1.530000      0.0000000E+00
   1.540000      0.0000000E+00
   1.550000      0.0000000E+00
   1.560000      0.0000000E+00
   1.570000      0.0000000E+00
   1.580000      0.0000000E+00
   1.590000      0.0000000E+00
   1.600000      0.0000000E+00
   1.610000      0.0000000E+00
   1.620000      0.0000000E+00
   1.630000      0.0000000E+00
   1.640000      0.0000000E+00
   1.650000      0.0000000E+00
   1.660000      0.0000000E+00
   1.670000      0.0000000E+00
   1.680000      0.0000000E+00
   1.690000      0.0000000E+00
   1.700000      0.0000000E+00
   1.710000      0.0000000E+00
   1.720000      0.0000000E+00
   1.730000      0.0000000E+00
   1.740000      0.0000000E+00
   1.750000      0.0000000E+00
   1.760000      0.0000000E+00
   1.770000      0.0000000E+00
   1.780000      0.0000000E+00
   1.790000      0.0000000E+00
   1.800000      0.0000000E+00
   1.810000      0.0000000E+00
   1.820000      0.0000000E+00
   1.830000      0.0000000E+00
   1.840000      0.0000000E+00
   1.850000      0.0000000E+00
   1.860000      0.0000000E+00
   1.870000      0.0000000E+00
   1.880000      0.0000000E+00
   1.890000      0.0000000E+00
   1.900000      0.0000000E+00
   1.910000      0.0000000E+00
   1.920000      0.0000000E+00
   1.930000      0.0000000E+00
   1.940000      0.0000000E+00
   1.950000      0.0000000E+00
   1.960000      0.0000000E+00
   1.970000      0.0000000E+00
   1.980000      0.0000000E+00
   1.990000      0.0000000E+00
   2.000000      0.0000000E+00
   2.010000      0.0000000E+00
   2.020000      0.0000000E+00
   2.030000      0.0000000E+00
   2.040000      0.0000000E+00
   2.050000      0.0000000E+00
   2.060000      0.0000000E+00
   2.070000      0.0000000E+00
   2.080000      0.0000000E+00
   2.090000      0.0000000E+00
   2.100000      0.0000000E+00
   2.110000      0.0000000E+00
   2.120000      0.0000000E+00
   2.130000      0.0000000E+00
   2.140000      0.0000000E+00
   2.150000      0.0000000E+00
   2.160000      0.0000000E+00
   2.170000      0.0000000E+00
   2.180000      0.0000000E+00
   2.190000      0.0000000E+00
   2.200000      0.0000000E+00
   2.210000      0.0000000E+00
   2.220000      0.0000000E+00
   2.230000      0.0000000E+00
   2.240000      0.0000000E+00
   2.250000      0.0000000E+00
   2.260000      0.0000000E+00
   2.270000      0.0000000E+00
   2.280000      0.0000000E+00
   2.290000      0.0000000E+00
   2.300000      0.0000000E+00
   2.310000      0.0000000E+00
   2.320000      0.0000000E+00
   2.330000      0.0000000E+00
   2.340000      0.0000000E+00
   2.350000      0.0000000E+00
   2.360000      0.0000000E+00
   2.370000      0.0000000E+00
   2.380000      0.0000000E+00
   2.390000      0.0000000E+00
   2.400000      0.0000000E+00
   2.410000      0.0000000E+00
   2.420000      0.0000000E+00
   2.430000      0.0000000E+00
   2.440000      0.0000000E+00
   2.450000      0.0000000E+00
   2.460000      0.0000000E+00
   2.470000      0.0000000E+00
   2.480000      0.0000000E+00
   2.490000      0.0000000E+00
   2.500000      0.0000000E+00
   2.510000      0.0000000E+00
   2.520000      0.0000000E+00
   2.530000      0.0000000E+00
   2.540000      0.0000000E+00
   2.550000      0.0000000E+00
   2.560000      0.0000000E+00
   2.570000      0.0000000E+00
   2.580000      0.0000000E+00
   2.590000      0.0000000E+00
   2.600000      0.0000000E+00
   2.610000      0.0000000E+00
   2.620000      0.0000000E+00
   2.630000      0.0000000E+00
   2.640000      0.0000000E+00
   2.650000      0.0000000E+00
   2.660000      0.0000000E+00
   2.670000      0.0000000E+00
   2.680000      0.0000000E+00
   2.690000      0.0000000E+00
   2.700000      0.0000000E+00
   2.710000      0.0000000E+00
   2.720000      0.0000000E+00
   2.730000      0.0000000E+00
   2.740000      0.0000000E+00
   2.750000      0.0000000E+00
   2.760000      0.0000000E+00
   2.770000      0.0000000E+00
   2.780000      0.0000000E+00
   2.790000      0.0000000E+00
   2.800000      0.0000000E+00
   2.810000      0.0000000E+00
   2.820000      0.0000000E+00
   2.830000      0.0000000E+00
   2.840000      0.0000000E+00
   2.850000      0.0000000E+00
   2.860000      0.0000000E+00
   2.870000      0.0000000E+00
   2.880000      0.0000000E+00
   2.890000      0.0000000E+00
   2.900000      0.0000000E+00
   2.910000      0.0000000E+00
   2.920000      0.0000000E+00
   2.930000      0.0000000E+00
   2.940000      0.0000000E+00
   2.950000      0.0000000E+00
   2.960000      0.0000000E+00
   2.970000      0.0000000E+00
   2.980000      0.0000000E+00
   2.990000      0.0000000E+00
   3.000000      0.0000000E+00
   3.010000     -1.2215109E-38
   3.020000     -1.4546540E-38
   3.030000     -1.6617711E-38
   3.040000     -1.8261621E-38
   3.050000     -1.9751347E-38
   3.060000     -2.0586249E-38
   3.070000     -2.1180270E-38
   3.080000     -2.1863632E-38
   3.090000     -2.1986044E-38
   3.100000     -2.1593840E-38
   3.110000     -2.0159155E-38
   3.120000     -1.9637798E-38
   3.130000     -2.2414699E-38
   3.140000     -2.6948312E-38
   3.150000     -3.2808214E-38
   3.160000     -3.9790727E-38
   3.170000     -4.7085915E-38
   3.180000     -5.0910362E-38
   3.190000     -5.0670577E-38
   3.200000     -5.0127910E-38
   3.210000     -4.5757667E-38
   3.220000     -3.6486267E-38
   3.230000     -2.4983268E-38
   3.240000      0.0000000E+00
   3.250000      0.0000000E+00
   3.260000      2.0622214E-38
   3.270000      4.0309777E-38
   3.280000      6.1925038E-38
   3.290000      8.3952520E-38
   3.300000      1.0634672E-37
   3.310000      1.2875874E-37
   3.320000      1.5084412E-37
   3.330000      1.7223563E-37
   3.340000      1.9102689E-37
   3.350000      2.0548502E-37
   3.360000      2.1337944E-37
   3.370000      2.1680966E-37
   3.380000      2.1924929E-37
   3.390000      2.2419419E-37
   3.400000      2.3138045E-37
   3.410000      2.4203241E-37
   3.420000      2.5695581E-37
   3.430000      2.7499857E-37
   3.440000      2.9294860E-37
   3.450000      3.0758533E-37
   3.460000      3.2457193E-37
   3.470000      3.3352789E-37
   3.480000      3.3276715E-37
   3.490000      3.3033452E-37
   3.500000      3.2341386E-37
   3.510000      2.9925170E-37
   3.520000      2.5999992E-37
   3.530000      2.1806231E-37
   3.540000      1.6989116E-37
   3.550000      1.1574848E-37
   3.560000      5.5330808E-38
   3.570000     -1.2882339E-38
   3.580000     -9.0297498E-38
   3.590000     -1.8093746E-37
   3.600000     -2.8153929E-37
   3.610000     -3.8607136E-37
   3.620000     -4.8977978E-37
   3.630000     -5.7898038E-37
   3.640000     -6.6044573E-37
   3.650000     -7.4610049E-37
   3.660000     -8.3281585E-37
   3.670000     -9.2851597E-37
   3.680000     -1.0341540E-36
   3.690000     -1.1485155E-36
   3.700000     -1.2613644E-36
   3.710000     -1.3592812E-36
   3.720000     -1.4423731E-36
   3.730000     -1.5183471E-36
   3.740000     -1.6028038E-36
   3.750000     -1.7428991E-36
   3.760000     -1.9940116E-36
   3.770000     -2.3089139E-36
   3.780000     -2.6588792E-36
   3.790000     -3.0437813E-36
   3.800000     -3.3898221E-36
   3.810000     -3.6847734E-36
   3.820000     -3.8110343E-36
   3.830000     -3.7798784E-36
   3.840000     -3.7229974E-36
   3.850000     -3.6269593E-36
   3.860000     -3.3841061E-36
   3.870000     -2.9690540E-36
   3.880000     -2.5029608E-36
   3.890000     -1.9822003E-36
   3.900000     -1.3755786E-36
   3.910000     -7.3152789E-37
   3.920000     -8.2577767E-38
   3.930000      5.8951846E-37
   3.940000      1.2664153E-36
   3.950000      1.9692038E-36
   3.960000      2.6859533E-36
   3.970000      3.0895204E-36
   3.980000      3.2131443E-36
   3.990000      3.3594874E-36
   4.000000      3.4875046E-36
   4.010000      3.6396452E-36
   4.020000      3.8949938E-36
   4.030000      4.2523002E-36
   4.040000      4.7577520E-36
   4.050000      5.3632450E-36
   4.060000      6.0701498E-36
   4.070000      6.8340453E-36
   4.080000      7.5613954E-36
   4.090000      8.3502723E-36
   4.100000      9.3577874E-36
   4.110000      1.0453748E-35
   4.120000      1.1472116E-35
   4.130000      1.2513941E-35
   4.140000      1.3515817E-35
   4.150000      1.4506180E-35
   4.160000      1.5509154E-35
   4.170000      1.6406730E-35
   4.180000      1.7216743E-35
   4.190000      1.7900319E-35
   4.200000      1.8389395E-35
   4.210000      1.8673879E-35
   4.220000      1.8741455E-35
   4.230000      1.8617299E-35
   4.240000      1.8405953E-35
   4.250000      1.8135490E-35
   4.260000      1.7661374E-35
   4.270000      1.6834036E-35
   4.280000      1.5802569E-35
   4.290000      1.4686188E-35
   4.300000      1.3342565E-35
   4.310000      1.1726816E-35
   4.320000      9.7731608E-36
   4.330000      7.3712321E-36
   4.340000      4.6293811E-36
   4.350000      1.7242730E-36
   4.360000     -1.2969358E-36
   4.370000     -4.4397537E-36
   4.380000     -7.7958751E-36
   4.390000     -1.1563334E-35
   4.400000     -1.5695705E-35
   4.410000     -1.9973774E-35
   4.420000     -2.4358048E-35
   4.430000     -2.8754747E-35
   4.440000     -3.2893842E-35
   4.450000     -3.6949510E-35
   4.460000     -4.1172028E-35
   4.470000     -4.5330517E-35
   4.480000     -4.9788178E-35
   4.490000     -5.4471897E-35
   4.500000     -5.8935057E-35
   4.510000     -6.3640260E-35
   4.520000     -6.8699173E-35
   4.530000     -7.4089865E-35
   4.540000     -8.0099431E-35
   4.550000     -8.6544790E-35
   4.560000     -9.3253522E-35
   4.570000     -9.9358270E-35
   4.580000     -1.0452016E-34
   4.590000     -1.0858419E-34
   4.600000     -1.1153067E-34
   4.610000     -1.1449357E-34
   4.620000     -1.1739907E-34
   4.630000     -1.2000861E-34
   4.640000     -1.2227191E-34
   4.650000     -1.2438296E-34
   4.660000     -1.2797538E-34
   4.670000     -1.3197919E-34
   4.680000     -1.3441124E-34
   4.690000     -1.3576829E-34
   4.700000     -1.3565802E-34
   4.710000     -1.3398151E-34
   4.720000     -1.3074659E-34
   4.730000     -1.2572782E-34
   4.740000     -1.1937346E-34
   4.750000     -1.1160813E-34
   4.760000     -1.0200453E-34
   4.770000     -9.0733637E-35
   4.780000     -7.5652894E-35
   4.790000     -5.6825532E-35
   4.800000     -3.7118034E-35
   4.810000     -1.7023058E-35
   4.820000      4.0259444E-36
   4.830000      2.6539101E-35
   4.840000      4.8584703E-35
   4.850000      6.9852162E-35
   4.860000      9.1554554E-35
   4.870000      1.1245857E-34
   4.880000      1.3248266E-34
   4.890000      1.5268770E-34
   4.900000      1.7311622E-34
   4.910000      1.9435715E-34
   4.920000      2.2176399E-34
   4.930000      2.5559237E-34
   4.940000      2.9406236E-34
   4.950000      3.3823498E-34
   4.960000      3.8598477E-34
   4.970000      4.3336753E-34
   4.980000      4.7574644E-34
   4.990000      5.1465925E-34
   5.000000      5.5396650E-34
   5.010000      5.9450783E-34
   5.020000      6.3519940E-34
   5.030000      6.7567539E-34
   5.040000      7.1619390E-34
   5.050000      7.5321376E-34
   5.060000      7.8515465E-34
   5.070000      8.1412434E-34
   5.080000      8.3920948E-34
   5.090000      8.6004640E-34
   5.100000      8.7612790E-34
   5.110000      8.8836525E-34
   5.120000      8.9754669E-34
   5.130000      9.0219430E-34
   5.140000      9.0085424E-34
   5.150000      8.9302159E-34
   5.160000      8.8058550E-34
   5.170000      8.6346185E-34
   5.180000      8.3742612E-34
   5.190000      8.0283757E-34
   5.200000      7.6355889E-34
   5.210000      7.2109604E-34
   5.220000      6.7354118E-34
   5.230000      6.1843708E-34
   5.240000      5.5898136E-34
   5.250000      4.9632154E-34
   5.260000      4.2495048E-34
   5.270000      3.4278997E-34
   5.280000      2.5687398E-34
   5.290000      1.6644193E-34
   5.300000      6.8990837E-35
   5.310000     -3.5538001E-35
   5.320000     -1.4776692E-34
   5.330000     -2.6707659E-34
   5.340000     -3.9666933E-34
   5.350000     -5.3785988E-34
   5.360000     -6.9113856E-34
   5.370000     -8.5628004E-34
   5.380000     -1.0324935E-33
   5.390000     -1.2198986E-33
   5.400000     -1.4170367E-33
   5.410000     -1.6235577E-33
   5.420000     -1.8412771E-33
   5.430000     -2.0697399E-33
   5.440000     -2.3077151E-33
   5.450000     -2.5529153E-33
   5.460000     -2.8033797E-33
   5.470000     -3.0584198E-33
   5.480000     -3.3187776E-33
   5.490000     -3.5842612E-33
   5.500000     -3.8506245E-33
   5.510000     -4.1145498E-33
   5.520000     -4.3730484E-33
   5.530000     -4.6253128E-33
   5.540000     -4.8721989E-33
   5.550000     -5.1113220E-33
   5.560000     -5.3376877E-33
   5.570000     -5.5515402E-33
   5.580000     -5.7542131E-33
   5.590000     -5.9403049E-33
   5.600000     -6.1066583E-33
   5.610000     -6.2528923E-33
   5.620000     -6.3775484E-33
   5.630000     -6.4785799E-33
   5.640000     -6.5529005E-33
   5.650000     -6.5997337E-33
   5.660000     -6.6182316E-33
   5.670000     -6.6056009E-33
   5.680000     -6.5608248E-33
   5.690000     -6.4821901E-33
   5.700000     -6.3669542E-33
   5.710000     -6.2140026E-33
   5.720000     -6.0198164E-33
   5.730000     -5.7814544E-33
   5.740000     -5.4974330E-33
   5.750000     -5.1643757E-33
   5.760000     -4.7803344E-33
   5.770000     -4.3444056E-33
   5.780000     -3.8540188E-33
   5.790000     -3.3062105E-33
   5.800000     -2.6983227E-33
   5.810000     -2.0257937E-33
   5.820000     -1.2881212E-33
   5.830000     -4.8592016E-34
   5.840000      3.8241095E-34
   5.850000      1.3180394E-33
   5.860000      2.3213633E-33
   5.870000      3.3934479E-33
   5.880000      4.5384959E-33
   5.890000      5.7562364E-33
   5.900000      7.0431963E-33
   5.910000      8.3983473E-33
   5.920000      9.8196735E-33
   5.930000      1.1305262E-32
   5.940000      1.2853356E-32
   5.950000      1.4461058E-32
   5.960000      1.6124635E-32
   5.970000      1.7840310E-32
   5.980000      1.9603380E-32
   5.990000      2.1408015E-32
   6.000000      2.3248132E-32
   6.010000      2.5118501E-32
   6.020000      2.7013192E-32
   6.030000      2.8923482E-32
   6.040000      3.0843062E-32
   6.050000      3.2766329E-32
   6.060000      3.4684366E-32
   6.070000      3.6586295E-32
   6.080000      3.8462028E-32
   6.090000      4.0302949E-32
   6.100000      4.2098517E-32
   6.110000      4.3836512E-32
   6.120000      4.5505790E-32
   6.130000      4.7094732E-32
   6.140000      4.8589235E-32
   6.150000      4.9975725E-32
   6.160000      5.1240604E-32
   6.170000      5.2368697E-32
   6.180000      5.3344633E-32
   6.190000      5.4152145E-32
   6.200000      5.4774234E-32
   6.210000      5.5193721E-32
   6.220000      5.5392767E-32
   6.230000      5.5353418E-32
   6.240000      5.5057452E-32
   6.250000      5.4485832E-32
   6.260000      5.3620010E-32
   6.270000      5.2440837E-32
   6.280000      5.0929674E-32
   6.290000      4.9068440E-32
   6.300000      4.6838054E-32
   6.310000      4.4220140E-32
   6.320000      4.1196748E-32
   6.330000      3.7751092E-32
   6.340000      3.3865910E-32
   6.350000      2.9524657E-32
   6.360000      2.4712635E-32
   6.370000      1.9415630E-32
   6.380000      1.3620462E-32
   6.390000      7.3151138E-33
   6.400000      4.8888865E-34
   6.410000     -6.8674944E-33
   6.420000     -1.4761795E-32
   6.430000     -2.3199893E-32
   6.440000     -3.2185867E-32
   6.450000     -4.1722047E-32
   6.460000     -5.1808644E-32
   6.470000     -6.2443453E-32
   6.480000     -7.3621952E-32
   6.490000     -8.5337040E-32
   6.500000     -9.7578803E-32
   6.510000     -1.1033419E-31
   6.520000     -1.2358746E-31
   6.530000     -1.3731956E-31
   6.540000     -1.5150777E-31
   6.550000     -1.6612519E-31
   6.560000     -1.8114176E-31
   6.570000     -1.9652388E-31
   6.580000     -2.1223290E-31
   6.590000     -2.2822627E-31
   6.600000     -2.4445698E-31
   6.610000     -2.6087356E-31
   6.620000     -2.7741986E-31
   6.630000     -2.9403503E-31
   6.640000     -3.1065335E-31
   6.650000     -3.2720287E-31
   6.660000     -3.4360976E-31
   6.670000     -3.5979423E-31
   6.680000     -3.7566879E-31
   6.690000     -3.9114316E-31
   6.700000     -4.0612150E-31
   6.710000     -4.2050264E-31
   6.720000     -4.3418078E-31
   6.730000     -4.4704549E-31
   6.740000     -4.5898089E-31
   6.750000     -4.6986564E-31
   6.760000     -4.7957409E-31
   6.770000     -4.8797695E-31
   6.780000     -4.9493997E-31
   6.790000     -5.0032496E-31
   6.800000     -5.0398991E-31
   6.810000     -5.0578917E-31
   6.820000     -5.0557387E-31
   6.830000     -5.0319255E-31
   6.840000     -4.9849156E-31
   6.850000     -4.9131441E-31
   6.860000     -4.8150327E-31
   6.870000     -4.6890009E-31
   6.880000     -4.5334609E-31
   6.890000     -4.3468276E-31
   6.900000     -4.1275265E-31
   6.910000     -3.8739984E-31
   6.920000     -3.5847102E-31
   6.930000     -3.2581617E-31
   6.940000     -2.8928930E-31
   6.950000     -2.4874965E-31
   6.960000     -2.0406243E-31
   6.970000     -1.5509994E-31
   6.980000     -1.0174257E-31
   6.990000     -4.3879864E-32
   7.000000      1.8588304E-32
   7.010000      8.5750509E-32
   7.020000      1.5768269E-31
   7.030000      2.3444680E-31
   7.040000      3.1608949E-31
   7.050000      4.0264095E-31
   7.060000      4.9411336E-31