  -2.600000      0.0000000E+00
  -2.590000      0.0000000E+00
  -2.580000      0.0000000E+00
  -2.570000      0.0000000E+00
  -2.560000      0.0000000E+00
  -2.550000      0.0000000E+00
  -2.540000      0.0000000E+00
  -2.530000      0.0000000E+00
  -2.520000      0.0000000E+00
  -2.510000      0.0000000E+00
  -2.500000      0.0000000E+00
  -2.490000      0.0000000E+00
  -2.480000      0.0000000E+00
  -2.470000      0.0000000E+00
  -2.460000      0.0000000E+00
  -2.450000      0.0000000E+00
  -2.440000      0.0000000E+00
  -2.430000      0.0000000E+00
  -2.420000      0.0000000E+00
  -2.410000      0.0000000E+00
  -2.400000      0.0000000E+00
  -2.390000      0.0000000E+00
  -2.380000      0.0000000E+00
  -2.370000      0.0000000E+00
  -2.360000      0.0000000E+00
  -2.350000      0.0000000E+00
  -2.340000      0.0000000E+00
  -2.330000      0.0000000E+00
  -2.320000      0.0000000E+00
  -2.310000      0.0000000E+00
  -2.300000      0.0000000E+00
  -2.290000      0.0000000E+00
  -2.280000      0.0000000E+00
  -2.270000      0.0000000E+00
  -2.260000      0.0000000E+00
  -2.250000      0.0000000E+00
  -2.240000      0.0000000E+00
  -2.230000      0.0000000E+00
  -2.220000      0.0000000E+00
  -2.210000      0.0000000E+00
  -2.200000      0.0000000E+00
  -2.190000      0.0000000E+00
  -2.180000      0.0000000E+00
  -2.170000      0.0000000E+00
  -2.160000      0.0000000E+00
  -2.150000      0.0000000E+00
  -2.140000      0.0000000E+00
  -2.130000      0.0000000E+00
  -2.120000      0.0000000E+00
  -2.110000      0.0000000E+00
  -2.100000      0.0000000E+00
  -2.090000      0.0000000E+00
  -2.080000      0.0000000E+00
  -2.070000      0.0000000E+00
  -2.060000      0.0000000E+00
  -2.050000      0.0000000E+00
  -2.040000      0.0000000E+00
  -2.030000      0.0000000E+00
  -2.020000      0.0000000E+00
  -2.010000      0.0000000E+00
  -2.000000      0.0000000E+00
  -1.990000      0.0000000E+00
  -1.980000      0.0000000E+00
  -1.970000      0.0000000E+00
  -1.960000      0.0000000E+00
  -1.950000      0.0000000E+00
  -1.940000      0.0000000E+00
  -1.930000      0.0000000E+00
  -1.920000      0.0000000E+00
  -1.910000      0.0000000E+00
  -1.900000      0.0000000E+00
  -1.890000      0.0000000E+00
  -1.880000      0.0000000E+00
  -1.870000      0.0000000E+00
  -1.860000      0.0000000E+00
  -1.850000      0.0000000E+00
  -1.840000      0.0000000E+00
  -1.830000      0.0000000E+00
  -1.820000      0.0000000E+00
  -1.810000      0.0000000E+00
  -1.800000      0.0000000E+00
  -1.790000      0.0000000E+00
  -1.780000      0.0000000E+00
  -1.770000      0.0000000E+00
  -1.760000      0.0000000E+00
  -1.750000      0.0000000E+00
  -1.740000      0.0000000E+00
  -1.730000      0.0000000E+00
  -1.720000      0.0000000E+00
  -1.710000      0.0000000E+00
  -1.700000      0.0000000E+00
  -1.690000      0.0000000E+00
  -1.680000      0.0000000E+00
  -1.670000      0.0000000E+00
  -1.660000      0.0000000E+00
  -1.650000      0.0000000E+00
  -1.640000      0.0000000E+00
  -1.630000      0.0000000E+00
  -1.620000      0.0000000E+00
  -1.610000      0.0000000E+00
  -1.600000      0.0000000E+00
  -1.590000      0.0000000E+00
  -1.580000      0.0000000E+00
  -1.570000      0.0000000E+00
  -1.560000      0.0000000E+00
  -1.550000      0.0000000E+00
  -1.540000      0.0000000E+00
  -1.530000      0.0000000E+00
  -1.520000      0.0000000E+00
  -1.510000      0.0000000E+00
  -1.500000      0.0000000E+00
  -1.490000      0.0000000E+00
  -1.480000      0.0000000E+00
  -1.470000      0.0000000E+00
  -1.460000      0.0000000E+00
  -1.450000      0.0000000E+00
  -1.440000      0.0000000E+00
  -1.430000      0.0000000E+00
  -1.420000      0.0000000E+00
  -1.410000      0.0000000E+00
  -1.400000      0.0000000E+00
  -1.390000      0.0000000E+00
  -1.380000      0.0000000E+00
  -1.370000      0.0000000E+00
  -1.360000      0.0000000E+00
  -1.350000      0.0000000E+00
  -1.340000      0.0000000E+00
  -1.330000      0.0000000E+00
  -1.320000      0.0000000E+00
  -1.310000      0.0000000E+00
  -1.300000      0.0000000E+00
  -1.290000      0.0000000E+00
  -1.280000      0.0000000E+00
  -1.270000      0.0000000E+00
  -1.260000      0.0000000E+00
  -1.250000      0.0000000E+00
  -1.240000      0.0000000E+00
  -1.230000      0.0000000E+00
  -1.220000      0.0000000E+00
  -1.210000      0.0000000E+00
  -1.200000      0.0000000E+00
  -1.190000      0.0000000E+00
  -1.180000      0.0000000E+00
  -1.170000      0.0000000E+00
  -1.160000      0.0000000E+00
  -1.150000      0.0000000E+00
  -1.140000      0.0000000E+00
  -1.130000      0.0000000E+00
  -1.120000      0.0000000E+00
  -1.110000      0.0000000E+00
  -1.100000      0.0000000E+00
  -1.090000      0.0000000E+00
  -1.080000      0.0000000E+00
  -1.070000      0.0000000E+00
  -1.060000      0.0000000E+00
  -1.050000      0.0000000E+00
  -1.040000      0.0000000E+00
  -1.030000      0.0000000E+00
  -1.020000      0.0000000E+00
  -1.010000      0.0000000E+00
  -1.000000      0.0000000E+00
 -0.9900000      0.0000000E+00
 -0.9800000      0.0000000E+00
 -0.9700000      0.0000000E+00
 -0.9600000      0.0000000E+00
 -0.9500000      0.0000000E+00
 -0.9400000      0.0000000E+00
 -0.9300000      0.0000000E+00
 -0.9200000      0.0000000E+00
 -0.9100000      0.0000000E+00
 -0.9000000      0.0000000E+00
 -0.8900000      0.0000000E+00
 -0.8800000      0.0000000E+00
 -0.8700000      0.0000000E+00
 -0.8600000      0.0000000E+00
 -0.8500000      0.0000000E+00
 -0.8400000      0.0000000E+00
 -0.8300000      0.0000000E+00
 -0.8200000      0.0000000E+00
 -0.8100000      0.0000000E+00
 -0.8000000      0.0000000E+00
 -0.7900000      0.0000000E+00
 -0.7800000      0.0000000E+00
 -0.7700000      0.0000000E+00
 -0.7600000      0.0000000E+00
 -0.7500000      0.0000000E+00
 -0.7400000      0.0000000E+00
 -0.7300000      0.0000000E+00
 -0.7200000      0.0000000E+00
 -0.7100000      0.0000000E+00
 -0.7000000      0.0000000E+00
 -0.6900000      0.0000000E+00
 -0.6800000      0.0000000E+00
 -0.6700000      0.0000000E+00
 -0.6600000      0.0000000E+00
 -0.6500000      0.0000000E+00
 -0.6400000      0.0000000E+00
 -0.6300000      0.0000000E+00
 -0.6200000      0.0000000E+00
 -0.6100000      0.0000000E+00
 -0.6000000      0.0000000E+00
 -0.5900000      0.0000000E+00
 -0.5800000      0.0000000E+00
 -0.5700000      0.0000000E+00
 -0.5600000      0.0000000E+00
 -0.5500000      0.0000000E+00
 -0.5400000      0.0000000E+00
 -0.5300000      0.0000000E+00
 -0.5200000      0.0000000E+00
 -0.5100000      0.0000000E+00
 -0.5000000      0.0000000E+00
 -0.4900000      0.0000000E+00
 -0.4800000      0.0000000E+00
 -0.4700000      0.0000000E+00
 -0.4600000      0.0000000E+00
 -0.4500000      0.0000000E+00
 -0.4400000      0.0000000E+00
 -0.4300000      0.0000000E+00
 -0.4200000      0.0000000E+00
 -0.4100000      0.0000000E+00
 -0.4000000      0.0000000E+00
 -0.3900000      0.0000000E+00
 -0.3800000      0.0000000E+00
 -0.3700000      0.0000000E+00
 -0.3600000      0.0000000E+00
 -0.3500000      0.0000000E+00
 -0.3400000      0.0000000E+00
 -0.3300000      0.0000000E+00
 -0.3200000      0.0000000E+00
 -0.3100000      0.0000000E+00
 -0.3000000      0.0000000E+00
 -0.2900000      0.0000000E+00
 -0.2800000      0.0000000E+00
 -0.2700000      0.0000000E+00
 -0.2600000      0.0000000E+00
 -0.2500000      0.0000000E+00
 -0.2400000      0.0000000E+00
 -0.2300000      0.0000000E+00
 -0.2200000      0.0000000E+00
 -0.2100000      0.0000000E+00
 -0.2000000      0.0000000E+00
 -0.1900000      0.0000000E+00
 -0.1800000      0.0000000E+00
 -0.1700000      0.0000000E+00
 -0.1600000      0.0000000E+00
 -0.1500000      0.0000000E+00
 -0.1400000      0.0000000E+00
 -0.1300000      0.0000000E+00
 -0.1200000      0.0000000E+00
 -0.1100000      0.0000000E+00
 -0.1000000      0.0000000E+00
 -9.0000004E-02  0.0000000E+00
 -7.9999998E-02  0.0000000E+00
 -7.0000000E-02  0.0000000E+00
 -5.9999999E-02  0.0000000E+00
 -5.0000001E-02  0.0000000E+00
 -3.9999999E-02  0.0000000E+00
 -2.9999999E-02  0.0000000E+00
 -2.0000000E-02  0.0000000E+00
 -9.9999998E-03  0.0000000E+00
 -3.4694470E-17  0.0000000E+00
  9.9999998E-03  0.0000000E+00
  2.0000000E-02  0.0000000E+00
  2.9999999E-02  0.0000000E+00
  3.9999999E-02  0.0000000E+00
  5.0000001E-02  0.0000000E+00
  5.9999999E-02  0.0000000E+00
  7.0000000E-02  0.0000000E+00
  7.9999998E-02  0.0000000E+00
  9.0000004E-02  0.0000000E+00
  0.1000000      0.0000000E+00
  0.1100000      0.0000000E+00
  0.1200000      0.0000000E+00
  0.1300000      0.0000000E+00
  0.1400000      0.0000000E+00
  0.1500000      0.0000000E+00
  0.1600000      0.0000000E+00
  0.1700000      0.0000000E+00
  0.1800000      0.0000000E+00
  0.1900000      0.0000000E+00
  0.2000000      0.0000000E+00
  0.2100000      0.0000000E+00
  0.2200000      0.0000000E+00
  0.2300000      0.0000000E+00
  0.2400000      0.0000000E+00
  0.2500000      0.0000000E+00
  0.2600000      0.0000000E+00
  0.2700000      0.0000000E+00
  0.2800000      0.0000000E+00
  0.2900000      0.0000000E+00
  0.3000000      0.0000000E+00
  0.3100000      0.0000000E+00
  0.3200000      0.0000000E+00
  0.3300000      0.0000000E+00
  0.3400000      0.0000000E+00
  0.3500000      0.0000000E+00
  0.3600000      0.0000000E+00
  0.3700000      0.0000000E+00
  0.3800000      0.0000000E+00
  0.3900000      0.0000000E+00
  0.4000000      0.0000000E+00
  0.4100000      0.0000000E+00
  0.4200000      0.0000000E+00
  0.4300000      0.0000000E+00
  0.4400000      0.0000000E+00
  0.4500000      0.0000000E+00
  0.4600000      0.0000000E+00
  0.4700000      0.0000000E+00
  0.4800000      0.0000000E+00
  0.4900000      0.0000000E+00
  0.5000000      0.0000000E+00
  0.5100000      0.0000000E+00
  0.5200000      0.0000000E+00
  0.5300000      0.0000000E+00
  0.5400000      0.0000000E+00
  0.5500000      0.0000000E+00
  0.5600000      0.0000000E+00
  0.5700000      0.0000000E+00
  0.5800000      0.0000000E+00
  0.5900000      0.0000000E+00
  0.6000000      0.0000000E+00
  0.6100000      0.0000000E+00
  0.6200000      0.0000000E+00
  0.6300000      0.0000000E+00
  0.6400000      0.0000000E+00
  0.6500000      0.0000000E+00
  0.6600000      0.0000000E+00
  0.6700000      0.0000000E+00
  0.6800000      0.0000000E+00
  0.6900000      0.0000000E+00
  0.7000000      0.0000000E+00
  0.7100000      0.0000000E+00
  0.7200000      0.0000000E+00
  0.7300000      0.0000000E+00
  0.7400000      0.0000000E+00
  0.7500000      0.0000000E+00
  0.7600000      0.0000000E+00
  0.7700000      0.0000000E+00
  0.7800000      0.0000000E+00
  0.7900000      0.0000000E+00
  0.8000000      0.0000000E+00
  0.8100000      0.0000000E+00
  0.8200000      0.0000000E+00
  0.8300000      0.0000000E+00
  0.8400000      0.0000000E+00
  0.8500000      0.0000000E+00
  0.8600000      0.0000000E+00
  0.8700000      0.0000000E+00
  0.8800000      0.0000000E+00
  0.8900000      0.0000000E+00
  0.9000000      0.0000000E+00
  0.9100000      0.0000000E+00
  0.9200000      0.0000000E+00
  0.9300000      0.0000000E+00
  0.9400000      0.0000000E+00
  0.9500000      0.0000000E+00
  0.9600000      0.0000000E+00
  0.9700000      0.0000000E+00
  0.9800000      0.0000000E+00
  0.9900000      0.0000000E+00
   1.000000      0.0000000E+00
   1.010000      0.0000000E+00
   1.020000      0.0000000E+00
   1.030000      0.0000000E+00
   1.040000      0.0000000E+00
   1.050000      0.0000000E+00
   1.060000      0.0000000E+00
   1.070000      0.0000000E+00
   1.080000      0.0000000E+00
   1.090000      0.0000000E+00
   1.100000      0.0000000E+00
   1.110000      0.0000000E+00
   1.120000      0.0000000E+00
   1.130000      0.0000000E+00
   1.140000      0.0000000E+00
   1.150000      0.0000000E+00
   1.160000      0.0000000E+00
   1.170000      0.0000000E+00
   1.180000      0.0000000E+00
   1.190000      0.0000000E+00
   1.200000      0.0000000E+00
   1.210000      0.0000000E+00
   1.220000      0.0000000E+00
   1.230000      0.0000000E+00
   1.240000      0.0000000E+00
   1.250000      0.0000000E+00
   1.260000      0.0000000E+00
   1.270000      0.0000000E+00
   1.280000      0.0000000E+00
   1.290000      0.0000000E+00
   1.300000      0.0000000E+00
   1.310000      0.0000000E+00
   1.320000      0.0000000E+00
   1.330000      0.0000000E+00
   1.340000      0.0000000E+00
   1.350000      0.0000000E+00
   1.360000      0.0000000E+00
   1.370000      0.0000000E+00
   1.380000      0.0000000E+00
   1.390000      0.0000000E+00
   1.400000      0.0000000E+00
   1.410000      0.0000000E+00
   1.420000      0.0000000E+00
   1.430000      0.0000000E+00
   1.440000      0.0000000E+00
   1.450000      0.0000000E+00
   1.460000      0.0000000E+00
   1.470000      0.0000000E+00
   1.480000      0.0000000E+00
   1.490000      0.0000000E+00
   1.500000      0.0000000E+00
   1.510000      0.0000000E+00
   1.520000      0.0000000E+00
   1.530000      0.0000000E+00
   1.540000      0.0000000E+00
   1.550000      0.0000000E+00
   1.560000      0.0000000E+00
   1.570000      0.0000000E+00
   1.580000      0.0000000E+00
   1.590000      0.0000000E+00
   1.600000      0.0000000E+00
   1.610000      0.0000000E+00
   1.620000      0.0000000E+00
   1.630000      0.0000000E+00
   1.640000      0.0000000E+00
   1.650000      0.0000000E+00
   1.660000      0.0000000E+00
   1.670000      0.0000000E+00
   1.680000      0.0000000E+00
   1.690000      0.0000000E+00
   1.700000      0.0000000E+00
   1.710000      0.0000000E+00
   1.720000      0.0000000E+00
   1.730000      0.0000000E+00
   1.740000      0.0000000E+00
   1.750000      0.0000000E+00
   1.760000      0.0000000E+00
   1.770000      0.0000000E+00
   1.780000      0.0000000E+00
   1.790000      0.0000000E+00
   1.800000      0.0000000E+00
   1.810000      0.0000000E+00
   1.820000      0.0000000E+00
   1.830000      0.0000000E+00
   1.840000      0.0000000E+00
   1.850000      0.0000000E+00
   1.860000      0.0000000E+00
   1.870000      0.0000000E+00
   1.880000      0.0000000E+00
   1.890000      0.0000000E+00
   1.900000      0.0000000E+00
   1.910000      0.0000000E+00
   1.920000      0.0000000E+00
   1.930000      0.0000000E+00
   1.940000      0.0000000E+00
   1.950000      0.0000000E+00
   1.960000      0.0000000E+00
   1.970000      0.0000000E+00
   1.980000      0.0000000E+00
   1.990000      0.0000000E+00
   2.000000      0.0000000E+00
   2.010000      0.0000000E+00
   2.020000      0.0000000E+00
   2.030000      0.0000000E+00
   2.040000      0.0000000E+00
   2.050000      0.0000000E+00
   2.060000      0.0000000E+00
   2.070000      0.0000000E+00
   2.080000      0.0000000E+00
   2.090000      0.0000000E+00
   2.100000      0.0000000E+00
   2.110000      0.0000000E+00
   2.120000      0.0000000E+00
   2.130000      0.0000000E+00
   2.140000      0.0000000E+00
   2.150000      0.0000000E+00
   2.160000      0.0000000E+00
   2.170000      0.0000000E+00
   2.180000      0.0000000E+00
   2.190000      0.0000000E+00
   2.200000      0.0000000E+00
   2.210000      0.0000000E+00
   2.220000      0.0000000E+00
   2.230000      0.0000000E+00
   2.240000      0.0000000E+00
   2.250000      0.0000000E+00
   2.260000      0.0000000E+00
   2.270000      0.0000000E+00
   2.280000      0.0000000E+00
   2.290000      0.0000000E+00
   2.300000      0.0000000E+00
   2.310000      0.0000000E+00
   2.320000      0.0000000E+00
   2.330000      0.0000000E+00
   2.340000      0.0000000E+00
   2.350000      0.0000000E+00
   2.360000      0.0000000E+00
   2.370000      0.0000000E+00
   2.380000      0.0000000E+00
   2.390000      0.0000000E+00
   2.400000      0.0000000E+00
   2.410000      0.0000000E+00
   2.420000      0.0000000E+00
   2.430000      0.0000000E+00
   2.440000      0.0000000E+00
   2.450000      0.0000000E+00
   2.460000      0.0000000E+00
   2.470000      0.0000000E+00
   2.480000      0.0000000E+00
   2.490000      0.0000000E+00
   2.500000      0.0000000E+00
   2.510000      0.0000000E+00
   2.520000      0.0000000E+00
   2.530000      0.0000000E+00
   2.540000      0.0000000E+00
   2.550000      0.0000000E+00
   2.560000      0.0000000E+00
   2.570000      0.0000000E+00
   2.580000      0.0000000E+00
   2.590000      0.0000000E+00
   2.600000      0.0000000E+00
   2.610000      0.0000000E+00
   2.620000      0.0000000E+00
   2.630000      0.0000000E+00
   2.640000      0.0000000E+00
   2.650000      0.0000000E+00
   2.660000      0.0000000E+00
   2.670000      0.0000000E+00
   2.680000      0.0000000E+00
   2.690000      0.0000000E+00
   2.700000      0.0000000E+00
   2.710000      0.0000000E+00
   2.720000      0.0000000E+00
   2.730000      0.0000000E+00
   2.740000      0.0000000E+00
   2.750000      0.0000000E+00
   2.760000      0.0000000E+00
   2.770000      0.0000000E+00
   2.780000      0.0000000E+00
   2.790000      0.0000000E+00
   2.800000      0.0000000E+00
   2.810000      0.0000000E+00
   2.820000      0.0000000E+00
   2.830000      0.0000000E+00
   2.840000      0.0000000E+00
   2.850000      0.0000000E+00
   2.860000      0.0000000E+00
   2.870000      0.0000000E+00
   2.880000      0.0000000E+00
   2.890000      0.0000000E+00
   2.900000      0.0000000E+00
   2.910000      0.0000000E+00
   2.920000      0.0000000E+00
   2.930000      0.0000000E+00
   2.940000      0.0000000E+00
   2.950000      0.0000000E+00
   2.960000      0.0000000E+00
   2.970000      0.0000000E+00
   2.980000      0.0000000E+00
   2.990000      0.0000000E+00
   3.000000      0.0000000E+00
   3.010000      0.0000000E+00
   3.020000      0.0000000E+00
   3.030000      0.0000000E+00
   3.040000      0.0000000E+00
   3.050000      0.0000000E+00
   3.060000      0.0000000E+00
   3.070000      0.0000000E+00
   3.080000      0.0000000E+00
   3.090000      2.2681145E-38
   3.100000      3.4618061E-38
   3.110000      3.7620481E-38
   3.120000      3.2642626E-38
   3.130000      2.7095989E-38
   3.140000      2.1044347E-38
   3.150000      1.4720604E-38
   3.160000      0.0000000E+00
   3.170000      0.0000000E+00
   3.180000      1.2780285E-38
   3.190000      1.6764625E-38
   3.200000      2.2382555E-38
   3.210000      2.1679022E-38
   3.220000      1.2680584E-38
   3.230000      0.0000000E+00
   3.240000     -1.4488727E-38
   3.250000     -3.0784299E-38
   3.260000     -4.7504937E-38
   3.270000     -6.2486057E-38
   3.280000     -7.3643593E-38
   3.290000     -8.0764196E-38
   3.300000     -8.5786477E-38
   3.310000     -9.9447977E-38
   3.320000     -1.2052690E-37
   3.330000     -1.3217179E-37
   3.340000     -1.3620082E-37
   3.350000     -1.4112997E-37
   3.360000     -1.4661687E-37
   3.370000     -1.5273069E-37
   3.380000     -1.6133654E-37
   3.390000     -1.7455228E-37
   3.400000     -1.9073661E-37
   3.410000     -2.0904555E-37
   3.420000     -2.2952542E-37
   3.430000     -2.6676604E-37
   3.440000     -3.2140888E-37
   3.450000     -3.6667277E-37
   3.460000     -4.0163667E-37
   3.470000     -4.1625129E-37
   3.480000     -4.0757862E-37
   3.490000     -3.8599661E-37
   3.500000     -3.5442233E-37
   3.510000     -3.2396186E-37
   3.520000     -2.9958068E-37
   3.530000     -2.5833137E-37
   3.540000     -1.9530563E-37
   3.550000     -1.4776975E-37
   3.560000     -1.1133095E-37
   3.570000     -6.3647750E-38
   3.580000      0.0000000E+00
   3.590000      3.9998540E-38
   3.600000      8.8063195E-38
   3.610000      1.6561223E-37
   3.620000      3.0712052E-37
   3.630000      4.7877512E-37
   3.640000      6.4488585E-37
   3.650000      7.8794775E-37
   3.660000      8.8586726E-37
   3.670000      9.2932930E-37
   3.680000      9.3558784E-37
   3.690000      9.3624127E-37
   3.700000      9.4709741E-37
   3.710000      9.7334658E-37
   3.720000      1.0558168E-36
   3.730000      1.2269645E-36
   3.740000      1.4565352E-36
   3.750000      1.7787486E-36
   3.760000      2.2051728E-36
   3.770000      2.7475276E-36
   3.780000      3.4059644E-36
   3.790000      4.0404160E-36
   3.800000      4.3023459E-36
   3.810000      4.1289637E-36
   3.820000      3.7464563E-36
   3.830000      3.2013649E-36
   3.840000      2.4848163E-36
   3.850000      1.6782458E-36
   3.860000      9.2540773E-37
   3.870000      2.3131467E-37
   3.880000     -1.4003478E-37
   3.890000     -1.2029256E-37
   3.900000      6.2914148E-38
   3.910000      4.0949107E-37
   3.920000      4.9014393E-37
   3.930000      2.5135326E-37
   3.940000      0.0000000E+00
   3.950000     -3.7086828E-37
   3.960000     -9.0024454E-37
   3.970000     -1.4691103E-36
   3.980000     -2.0563047E-36
   3.990000     -2.6951686E-36
   4.000000     -3.3546692E-36
   4.010000     -4.0084773E-36
   4.020000     -4.3232220E-36
   4.030000     -4.3425763E-36
   4.040000     -4.7626132E-36
   4.050000     -5.9154554E-36
   4.060000     -7.5161327E-36
   4.070000     -8.9196438E-36
   4.080000     -1.0039824E-35
   4.090000     -1.1099239E-35
   4.100000     -1.2380693E-35
   4.110000     -1.3802436E-35
   4.120000     -1.5016848E-35
   4.130000     -1.6190513E-35
   4.140000     -1.6956027E-35
   4.150000     -1.6831587E-35
   4.160000     -1.6188984E-35
   4.170000     -1.5550827E-35
   4.180000     -1.4764767E-35
   4.190000     -1.3749711E-35
   4.200000     -1.2719611E-35
   4.210000     -1.1596281E-35
   4.220000     -1.0626683E-35
   4.230000     -9.8576709E-36
   4.240000     -9.4219998E-36
   4.250000     -9.3636153E-36
   4.260000     -9.2486861E-36
   4.270000     -9.2053555E-36
   4.280000     -9.2651003E-36
   4.290000     -9.1530853E-36
   4.300000     -8.9597637E-36
   4.310000     -8.4826001E-36
   4.320000     -7.1791961E-36
   4.330000     -5.1679941E-36
   4.340000     -2.2951751E-36
   4.350000      1.4823857E-36
   4.360000      5.8953664E-36
   4.370000      1.0702102E-35
   4.380000      1.5310250E-35
   4.390000      1.9469632E-35
   4.400000      2.3147223E-35
   4.410000      2.6867571E-35
   4.420000      3.0684593E-35
   4.430000      3.4011899E-35
   4.440000      3.6376459E-35
   4.450000      3.7863213E-35
   4.460000      3.9269154E-35
   4.470000      4.0915405E-35
   4.480000      4.3554399E-35
   4.490000      4.7433562E-35
   4.500000      5.2187375E-35
   4.510000      5.7404532E-35
   4.520000      6.1432781E-35
   4.530000      6.4299684E-35
   4.540000      6.7034224E-35
   4.550000      7.0562992E-35
   4.560000      7.4783160E-35
   4.570000      7.8419857E-35
   4.580000      7.8533285E-35
   4.590000      7.5533559E-35
   4.600000      7.2712878E-35
   4.610000      7.4228427E-35
   4.620000      7.9164057E-35
   4.630000      8.4069628E-35
   4.640000      8.8653109E-35
   4.650000      9.1803824E-35
   4.660000      9.3553446E-35
   4.670000      8.9931058E-35
   4.680000      8.2637993E-35
   4.690000      7.6374812E-35
   4.700000      6.9807197E-35
   4.710000      6.2227956E-35
   4.720000      5.4691952E-35
   4.730000      4.7845610E-35
   4.740000      4.0643532E-35
   4.750000      3.2185294E-35
   4.760000      2.1466210E-35
   4.770000      9.5483647E-36
   4.780000     -1.8709983E-36
   4.790000     -1.4760342E-35
   4.800000     -3.2620907E-35
   4.810000     -4.7865920E-35
   4.820000     -5.7869971E-35
   4.830000     -7.1637582E-35
   4.840000     -8.8025081E-35
   4.850000     -1.0395466E-34
   4.860000     -1.1884510E-34
   4.870000     -1.3302653E-34
   4.880000     -1.4630239E-34
   4.890000     -1.5854337E-34
   4.900000     -1.7630949E-34
   4.910000     -2.0180412E-34
   4.920000     -2.3207032E-34
   4.930000     -2.6504548E-34
   4.940000     -3.0440893E-34
   4.950000     -3.4822852E-34
   4.960000     -3.8355871E-34
   4.970000     -4.0930530E-34
   4.980000     -4.3470856E-34
   4.990000     -4.6591306E-34
   5.000000     -4.9671510E-34
   5.010000     -5.2194576E-34
   5.020000     -5.4376807E-34
   5.030000     -5.5360439E-34
   5.040000     -5.4996936E-34
   5.050000     -5.4118763E-34
   5.060000     -5.3027772E-34
   5.070000     -5.2519829E-34
   5.080000     -5.2569283E-34
   5.090000     -5.2876298E-34
   5.100000     -5.3703741E-34
   5.110000     -5.4912011E-34
   5.120000     -5.6070575E-34
   5.130000     -5.6713878E-34
   5.140000     -5.6686617E-34
   5.150000     -5.5595758E-34
   5.160000     -5.3307516E-34
   5.170000     -5.0249748E-34
   5.180000     -4.6257696E-34
   5.190000     -4.1089217E-34
   5.200000     -3.5109622E-34
   5.210000     -2.8611181E-34
   5.220000     -2.1787322E-34
   5.230000     -1.4897274E-34
   5.240000     -9.5368809E-35
   5.250000     -5.7943044E-35
   5.260000     -1.9648460E-35
   5.270000      2.8684648E-35
   5.280000      9.7605199E-35
   5.290000      1.8136317E-34
   5.300000      2.7692893E-34
   5.310000      3.8698583E-34
   5.320000      5.1468263E-34
   5.330000      6.6700699E-34
   5.340000      8.3611857E-34
   5.350000      1.0041750E-33
   5.360000      1.1602220E-33
   5.370000      1.3116981E-33
   5.380000      1.4579611E-33
   5.390000      1.5916774E-33
   5.400000      1.7191177E-33
   5.410000      1.8432896E-33
   5.420000      1.9628612E-33
   5.430000      2.0811788E-33
   5.440000      2.2035042E-33
   5.450000      2.3327944E-33
   5.460000      2.4676688E-33
   5.470000      2.6074489E-33
   5.480000      2.7545973E-33
   5.490000      2.9096242E-33
   5.500000      3.0699818E-33
   5.510000      3.2306703E-33
   5.520000      3.3865838E-33
   5.530000      3.5328384E-33
   5.540000      3.6635843E-33
   5.550000      3.7751188E-33
   5.560000      3.8650460E-33
   5.570000      3.9333382E-33
   5.580000      3.9790623E-33
   5.590000      4.0029936E-33
   5.600000      4.0060774E-33
   5.610000      3.9916618E-33
   5.620000      3.9666987E-33
   5.630000      3.9319041E-33
   5.640000      3.8851932E-33
   5.650000      3.8235955E-33
   5.660000      3.7467163E-33
   5.670000      3.6572124E-33
   5.680000      3.5493725E-33
   5.690000      3.4144026E-33
   5.700000      3.2489914E-33
   5.710000      3.0439652E-33
   5.720000      2.7951597E-33
   5.730000      2.4991065E-33
   5.740000      2.1514667E-33
   5.750000      1.7539612E-33
   5.760000      1.3065165E-33
   5.770000      8.1021563E-34
   5.780000      2.7294850E-34
   5.790000     -3.0065681E-34
   5.800000     -9.1622273E-34
   5.810000     -1.5632264E-33
   5.820000     -2.2295853E-33
   5.830000     -2.9219092E-33
   5.840000     -3.6459103E-33
   5.850000     -4.4034147E-33
   5.860000     -5.1958852E-33
   5.870000     -6.0246385E-33
   5.880000     -6.8925155E-33
   5.890000     -7.8032371E-33
   5.900000     -8.7597890E-33
   5.910000     -9.7644650E-33
   5.920000     -1.0817045E-32
   5.930000     -1.1911426E-32
   5.940000     -1.3045157E-32
   5.950000     -1.4211935E-32
   5.960000     -1.5400585E-32
   5.970000     -1.6603224E-32
   5.980000     -1.7810629E-32
   5.990000     -1.9014667E-32
   6.000000     -2.0208141E-32
   6.010000     -2.1385466E-32
   6.020000     -2.2543153E-32
   6.030000     -2.3679045E-32
   6.040000     -2.4791226E-32
   6.050000     -2.5879369E-32
   6.060000     -2.6943450E-32
   6.070000     -2.7979384E-32
   6.080000     -2.8982721E-32
   6.090000     -2.9947564E-32
   6.100000     -3.0864699E-32
   6.110000     -3.1722455E-32
   6.120000     -3.2505842E-32
   6.130000     -3.3199566E-32
   6.140000     -3.3787178E-32
   6.150000     -3.4251222E-32
   6.160000     -3.4575879E-32
   6.170000     -3.4745961E-32
   6.180000     -3.4749791E-32
   6.190000     -3.4578092E-32
   6.200000     -3.4222235E-32
   6.210000     -3.3675830E-32
   6.220000     -3.2933640E-32
   6.230000     -3.1991232E-32
   6.240000     -3.0843423E-32
   6.250000     -2.9483432E-32
   6.260000     -2.7903518E-32
   6.270000     -2.6093115E-32
   6.280000     -2.4038736E-32
   6.290000     -2.1725598E-32
   6.300000     -1.9137205E-32
   6.310000     -1.6256405E-32
   6.320000     -1.3066450E-32
   6.330000     -9.5519525E-33
   6.340000     -5.6998303E-33
   6.350000     -1.5012773E-33
   6.360000      3.0517053E-33
   6.370000      7.9637531E-33
   6.380000      1.3233104E-32
   6.390000      1.8856485E-32
   6.400000      2.4829006E-32
   6.410000      3.1144414E-32
   6.420000      3.7796211E-32
   6.430000      4.4778365E-32
   6.440000      5.2085755E-32
   6.450000      5.9714173E-32
   6.460000      6.7660309E-32
   6.470000      7.5921089E-32
   6.480000      8.4492765E-32
   6.490000      9.3369781E-32
   6.500000      1.0254360E-31
   6.510000      1.1200183E-31
   6.520000      1.2172726E-31
   6.530000      1.3169734E-31
   6.540000      1.4188392E-31
   6.550000      1.5225345E-31
   6.560000      1.6276759E-31
   6.570000      1.7338387E-31
   6.580000      1.8405678E-31
   6.590000      1.9473872E-31
   6.600000      2.0538099E-31
   6.610000      2.1593439E-31
   6.620000      2.2634948E-31
   6.630000      2.3657665E-31
   6.640000      2.4656563E-31
   6.650000      2.5626482E-31
   6.660000      2.6562002E-31
   6.670000      2.7457336E-31
   6.680000      2.8306301E-31
   6.690000      2.9102144E-31
   6.700000      2.9837470E-31
   6.710000      3.0504276E-31
   6.720000      3.1093965E-31
   6.730000      3.1597392E-31
   6.740000      3.2004968E-31
   6.750000      3.2306798E-31
   6.760000      3.2492784E-31
   6.770000      3.2552803E-31
   6.780000      3.2476767E-31
   6.790000      3.2254697E-31
   6.800000      3.1876785E-31
   6.810000      3.1333387E-31
   6.820000      3.0614967E-31
   6.830000      2.9712103E-31
   6.840000      2.8615306E-31
   6.850000      2.7315007E-31
   6.860000      2.5801558E-31
   6.870000      2.4065106E-31
   6.880000      2.2095643E-31
   6.890000      1.9883050E-31
   6.900000      1.7417195E-31
   6.910000      1.4688109E-31
   6.920000      1.1686116E-31
   6.930000      8.4020410E-32
   6.940000      4.8273865E-32
   6.950000      9.5450185E-33
   6.960000     -3.2232775E-32
   6.970000     -7.7115204E-32
   6.980000     -1.2514644E-31
   6.990000     -1.7635892E-31
   7.000000     -2.3077336E-31
   7.010000     -2.8839903E-31
   7.020000     -3.4923399E-31
   7.030000     -4.1326526E-31
   7.040000     -4.8046893E-31
   7.050000     -5.5080966E-31
   7.060000     -6.2423965E-31